! Touchstone file exported from HFSS 2024.2.0
!        File:           C:/00_Asenjo/00_Project/Ketupa/simulation/Ansys_HFSS/HFSS_Projects/Edge_Fed_Rectangular_Patch_Antenna.aedt
!        Generated:      05:11:10 PM Jun 27, 2025
!        Design:         Rectangular_Patch_Antenna
!        Project:        Edge_Fed_Rectangular_Patch_Antenna
!        Setup:          Setup1
!        Solution:       Sweep
!
! Variables:
!        Airbox_dist = 9.9931mm
!        EdgeFeedLength = 10mm
!        EdgeFeedWidth = 1.5mm
!        FeedLength = 15mm
!        FeedWidth = 3mm
!        VirtualObject_dist = 2.9979mm
!        patchX = 41mm
!        patchY = 32.5mm
!        subH = 1.5mm
!        subX = 90mm
!        subY = 90mm
!
# GHz S MA R 50.000000
! Terminal data exported
! Port[1] = patch_T1
0                              0.999986826262102 0                
! Gamma         50               0                
! Port Impedance         50               0                
1E-09                          0.999986826262102 -1.17604518187284E-06 
! Gamma         50               0                
! Port Impedance         50               0                
1.12201845430196E-09           0.999986826262102 -1.31954439715424E-06 
! Gamma         50               0                
! Port Impedance         50               0                
1.25892541179417E-09           0.999986826262102 -1.48055316487781E-06 
! Gamma         50               0                
! Port Impedance         50               0                
1.41253754462275E-09           0.999986826262102 -1.66120797356808E-06 
! Gamma         50               0                
! Port Impedance         50               0                
1.58489319246111E-09           0.999986826262102 -1.86390600277696E-06 
! Gamma         50               0                
! Port Impedance         50               0                
1.77827941003892E-09           0.999986826262102 -2.09133693219995E-06 
! Gamma         50               0                
! Port Impedance         50               0                
1.99526231496888E-09           0.999986826262102 -2.3465186320916E-06 
! Gamma         50               0                
! Port Impedance         50               0                
2.23872113856834E-09           0.999986826262102 -2.63283720857017E-06 
! Gamma         50               0                
! Port Impedance         50               0                
2.51188643150958E-09           0.999986826262102 -2.9540919351886E-06 
! Gamma         50               0                
! Port Impedance         50               0                
2.81838293126445E-09           0.999986826262102 -3.31454566698621E-06 
! Gamma         50               0                
! Port Impedance         50               0                
3.16227766016838E-09           0.999986826262102 -3.71898140598514E-06 
! Gamma         50               0                
! Port Impedance         50               0                
3.54813389233575E-09           0.999986826262102 -4.17276576872119E-06 
! Gamma         50               0                
! Port Impedance         50               0                
3.98107170553497E-09           0.999986826262102 -4.68192019798469E-06 
! Gamma         50               0                
! Port Impedance         50               0                
4.46683592150963E-09           0.999986826262102 -5.25320086370793E-06 
! Gamma         50               0                
! Port Impedance         50               0                
5.01187233627272E-09           0.999986826262102 -5.89418831323531E-06 
! Gamma         50               0                
! Port Impedance         50               0                
5.62341325190349E-09           0.999986826262102 -6.61338806058097E-06 
! Gamma         50               0                
! Port Impedance         50               0                
6.30957344480193E-09           0.999986826262102 -7.42034344943212E-06 
! Gamma         50               0                
! Port Impedance         50               0                
7.07945784384138E-09           0.999986826262102 -8.32576228752153E-06 
! Gamma         50               0                
! Port Impedance         50               0                
7.94328234724282E-09           0.999986826262102 -9.34165893273048E-06 
! Gamma         50               0                
! Port Impedance         50               0                
8.91250938133745E-09           0.999986826262102 -1.04815137163184E-05 
! Gamma         50               0                
! Port Impedance         50               0                
1E-08                          0.999986826262102 -1.17604518187284E-05 
! Gamma         50               0                
! Port Impedance         50               0                
1.12201845430196E-08           0.999986826262101 -1.31954439715423E-05 
! Gamma         50               0                
! Port Impedance         50               0                
1.25892541179417E-08           0.999986826262101 -1.48055316487781E-05 
! Gamma         50               0                
! Port Impedance         50               0                
1.41253754462275E-08           0.999986826262101 -1.66120797356807E-05 
! Gamma         50               0                
! Port Impedance         50               0                
1.58489319246111E-08           0.999986826262101 -1.86390600277694E-05 
! Gamma         50               0                
! Port Impedance         50               0                
1.77827941003892E-08           0.999986826262101 -2.09133693219994E-05 
! Gamma         50               0                
! Port Impedance         50               0                
1.99526231496888E-08           0.999986826262101 -2.34651863209158E-05 
! Gamma         50               0                
! Port Impedance         50               0                
2.23872113856834E-08           0.9999868262621  -2.63283720857014E-05 
! Gamma         50               0                
! Port Impedance         50               0                
2.51188643150958E-08           0.9999868262621  -2.95409193518856E-05 
! Gamma         50               0                
! Port Impedance         50               0                
2.81838293126445E-08           0.999986826262099 -3.31454566698615E-05 
! Gamma         50               0                
! Port Impedance         50               0                
3.16227766016838E-08           0.999986826262098 -3.71898140598505E-05 
! Gamma         50               0                
! Port Impedance         50               0                
3.54813389233575E-08           0.999986826262097 -4.17276576872106E-05 
! Gamma         50               0                
! Port Impedance         50               0                
3.98107170553497E-08           0.999986826262095 -4.68192019798451E-05 
! Gamma         50               0                
! Port Impedance         50               0                
4.46683592150963E-08           0.999986826262094 -5.25320086370767E-05 
! Gamma         50               0                
! Port Impedance         50               0                
5.01187233627272E-08           0.999986826262091 -5.89418831323495E-05 
! Gamma         50               0                
! Port Impedance         50               0                
5.62341325190349E-08           0.999986826262088 -6.61338806058047E-05 
! Gamma         50               0                
! Port Impedance         50               0                
6.30957344480193E-08           0.999986826262085 -7.4203434494314E-05 
! Gamma         50               0                
! Port Impedance         50               0                
7.07945784384138E-08           0.999986826262081 -8.32576228752052E-05 
! Gamma         50               0                
! Port Impedance         50               0                
7.94328234724281E-08           0.999986826262075 -9.34165893272905E-05 
! Gamma         50               0                
! Port Impedance         50               0                
8.91250938133746E-08           0.999986826262068 -0.000104815137163164 
! Gamma         50               0                
! Port Impedance         50               0                
1E-07                          0.999986826262059 -0.000117604518187255 
! Gamma         50               0                
! Port Impedance         50               0                
1.12201845430196E-07           0.999986826262048 -0.000131954439715383 
! Gamma         50               0                
! Port Impedance         50               0                
1.25892541179417E-07           0.999986826262034 -0.000148055316487723 
! Gamma         50               0                
! Port Impedance         50               0                
1.41253754462275E-07           0.999986826262016 -0.000166120797356727 
! Gamma         50               0                
! Port Impedance         50               0                
1.58489319246111E-07           0.999986826261993 -0.000186390600277581 
! Gamma         50               0                
! Port Impedance         50               0                
1.77827941003892E-07           0.999986826261965 -0.000209133693219832 
! Gamma         50               0                
! Port Impedance         50               0                
1.99526231496888E-07           0.99998682626193 -0.00023465186320893 
! Gamma         50               0                
! Port Impedance         50               0                
2.23872113856834E-07           0.999986826261885 -0.000263283720856693 
! Gamma         50               0                
! Port Impedance         50               0                
2.51188643150958E-07           0.999986826261829 -0.000295409193518402 
! Gamma         50               0                
! Port Impedance         50               0                
2.81838293126445E-07           0.999986826261758 -0.000331454566697974 
! Gamma         50               0                
! Port Impedance         50               0                
3.16227766016838E-07           0.999986826261669 -0.000371898140597599 
! Gamma         50               0                
! Port Impedance         50               0                
3.54813389233575E-07           0.999986826261557 -0.000417276576870826 
! Gamma         50               0                
! Port Impedance         50               0                
3.98107170553497E-07           0.999986826261415 -0.000468192019796644 
! Gamma         50               0                
! Port Impedance         50               0                
4.46683592150963E-07           0.999986826261238 -0.000525320086368214 
! Gamma         50               0                
! Port Impedance         50               0                
5.01187233627272E-07           0.999986826261014 -0.000589418831319888 
! Gamma         50               0                
! Port Impedance         50               0                
5.62341325190349E-07           0.999986826260732 -0.000661338806052952 
! Gamma         50               0                
! Port Impedance         50               0                
6.30957344480193E-07           0.999986826260377 -0.000742034344935943 
! Gamma         50               0                
! Port Impedance         50               0                
7.07945784384138E-07           0.99998682625993 -0.000832576228741886 
! Gamma         50               0                
! Port Impedance         50               0                
7.94328234724281E-07           0.999986826259368 -0.000934165893258545 
! Gamma         50               0                
! Port Impedance         50               0                
8.91250938133746E-07           0.99998682625866 -0.00104815137161135 
! Gamma         50               0                
! Port Impedance         50               0                
1E-06                          0.999986826257769 -0.0011760451818439 
! Gamma         50               0                
! Port Impedance         50               0                
1.12201845430196E-06           0.999986826256647 -0.00131954439711336 
! Gamma         50               0                
! Port Impedance         50               0                
1.25892541179417E-06           0.999986826255235 -0.00148055316482007 
! Gamma         50               0                
! Port Impedance         50               0                
1.41253754462275E-06           0.999986826253457 -0.00166120797348652 
! Gamma         50               0                
! Port Impedance         50               0                
1.58489319246111E-06           0.999986826251218 -0.00186390600266175 
! Gamma         50               0                
! Port Impedance         50               0                
1.77827941003892E-06           0.9999868262484  -0.00209133693203721 
! Gamma         50               0                
! Port Impedance         50               0                
1.99526231496888E-06           0.999986826244852 -0.00234651863186172 
! Gamma         50               0                
! Port Impedance         50               0                
2.23872113856834E-06           0.999986826240385 -0.00263283720824547 
! Gamma         50               0                
! Port Impedance         50               0                
2.51188643150958E-06           0.999986826234763 -0.00295409193472995 
! Gamma         50               0                
! Port Impedance         50               0                
2.81838293126445E-06           0.999986826227684 -0.00331454566633834 
! Gamma         50               0                
! Port Impedance         50               0                
3.16227766016838E-06           0.999986826218772 -0.00371898140507 
! Gamma         50               0                
! Port Impedance         50               0                
3.54813389233575E-06           0.999986826207553 -0.00417276576742851 
! Gamma         50               0                
! Port Impedance         50               0                
3.98107170553497E-06           0.999986826193428 -0.00468192019615874 
! Gamma         50               0                
! Port Impedance         50               0                
4.46683592150963E-06           0.999986826175647 -0.0052532008611287 
! Gamma         50               0                
! Port Impedance         50               0                
5.01187233627272E-06           0.999986826153262 -0.00589418830959206 
! Gamma         50               0                
! Port Impedance         50               0                
5.62341325190349E-06           0.99998682612508 -0.00661338805543474 
! Gamma         50               0                
! Port Impedance         50               0                
6.30957344480193E-06           0.999986826089601 -0.00742034344216288 
! Gamma         50               0                
! Port Impedance         50               0                
7.07945784384138E-06           0.999986826044936 -0.00832576227725345 
! Gamma         50               0                
! Port Impedance         50               0                
7.94328234724281E-06           0.999986825988707 -0.00934165891822643 
! Gamma         50               0                
! Port Impedance         50               0                
8.91250938133746E-06           0.999986825917918 -0.0104815136958309 
! Gamma         50               0                
! Port Impedance         50               0                
1E-05                          0.999986825828799 -0.011760451789789 
! Gamma         50               0                
! Port Impedance         50               0                
1.12201845430196E-05           0.999986825716606 -0.0131954439306643 
! Gamma         50               0                
! Port Impedance         50               0                
1.25892541179417E-05           0.999986825575363 -0.0148055315910364 
! Gamma         50               0                
! Port Impedance         50               0                
1.41253754462276E-05           0.99998682539755 -0.0166120796541185 
! Gamma         50               0                
! Port Impedance         50               0                
1.58489319246111E-05           0.999986825173694 -0.0186390599125597 
! Gamma         50               0                
! Port Impedance         50               0                
1.77827941003892E-05           0.999986824891878 -0.0209133691592613 
! Gamma         50               0                
! Port Impedance         50               0                
1.99526231496888E-05           0.999986824537091 -0.0234651860910421 
! Gamma         50               0                
! Port Impedance         50               0                
2.23872113856834E-05           0.999986824090441 -0.0263283717609962 
! Gamma         50               0                
! Port Impedance         50               0                
2.51188643150958E-05           0.999986823528141 -0.0295409188932274 
! Gamma         50               0                
! Port Impedance         50               0                
2.81838293126445E-05           0.999986822820247 -0.0331454560219896 
! Gamma         50               0                
! Port Impedance         50               0                
3.16227766016838E-05           0.999986821929059 -0.0371898131447072 
! Gamma         50               0                
! Port Impedance         50               0                
3.54813389233575E-05           0.999986820807118 -0.0417276563945364 
! Gamma         50               0                
! Port Impedance         50               0                
3.98107170553497E-05           0.999986819394674 -0.0468192001538946 
! Gamma         50               0                
! Port Impedance         50               0                
4.46683592150963E-05           0.999986817616507 -0.0525320060578536 
! Gamma         50               0                
! Port Impedance         50               0                
5.01187233627273E-05           0.999986815377919 -0.0589418794891008 
! Gamma         50               0                
! Port Impedance         50               0                
5.62341325190349E-05           0.999986812559689 -0.0661338754595807 
! Gamma         50               0                
! Port Impedance         50               0                
6.30957344480193E-05           0.999986809011725 -0.0742034272250823 
! Gamma         50               0                
! Port Impedance         50               0                
7.07945784384137E-05           0.999986804545068 -0.0832576126071474 
! Gamma         50               0                
! Port Impedance         50               0                
7.94328234724282E-05           0.999986798921823 -0.0934165748232824 
! Gamma         50               0                
! Port Impedance         50               0                
8.91250938133746E-05           0.999986791842487 -0.104815116675723 
! Gamma         50               0                
! Port Impedance         50               0                
0.0001                         0.99998678292999 -0.117604489248005 
! Gamma         50               0                
! Port Impedance         50               0                
0.000112201845430196           0.999986771709597 -0.131954398837655 
! Gamma         50               0                
! Port Impedance         50               0                
0.000125892541179417           0.999986757583602 -0.148055258746487 
! Gamma         50               0                
! Port Impedance         50               0                
0.000141253754462276           0.999986739799464 -0.16612071579522 
! Gamma         50               0                
! Port Impedance         50               0                
0.000158489319246111           0.999986717409666 -0.186390485069171 
! Gamma         50               0                
! Port Impedance         50               0                
0.000177827941003892           0.999986689221163 -0.209133530484127 
! Gamma         50               0                
! Port Impedance         50               0                
0.000199526231496888           0.999986653731693 -0.234651633339524 
! Gamma         50               0                
! Port Impedance         50               0                
0.000223872113856834           0.999986609049538 -0.263283396159104 
! Gamma         50               0                
! Port Impedance         50               0                
0.000251188643150958           0.999986552792393 -0.295408734873674 
! Gamma         50               0                
! Port Impedance         50               0                
0.000281838293126446           0.999986481959902 -0.331453918850066 
! Gamma         50               0                
! Port Impedance         50               0                
0.000316227766016838           0.999986392772902 -0.37189722549698 
! Gamma         50               0                
! Port Impedance         50               0                
0.000354813389233575           0.999986280470657 -0.417275284272626 
! Gamma         50               0                
! Port Impedance         50               0                
0.000398107170553497           0.999986139054901 -0.468190193981218 
! Gamma         50               0                
! Port Impedance         50               0                
0.000446683592150963           0.999985960966582 -0.525317507385281 
! Gamma         50               0                
! Port Impedance         50               0                
0.000501187233627273           0.999985736677238 -0.58941518849841 
! Gamma         50               0                
! Port Impedance         50               0                
0.000562341325190349           0.999985454171941 -0.661333660588652 
! Gamma         50               0                
! Port Impedance         50               0                
0.000630957344480193           0.999985098294205 -0.742027077055057 
! Gamma         50               0                
! Port Impedance         50               0                
0.000707945784384137           0.999984649914658 -0.832565963086278 
! Gamma         50               0                
! Port Impedance         50               0                
0.000794328234724282           0.999984084874015 -0.934151393521954 
! Gamma         50               0                
! Port Impedance         50               0                
0.000891250938133746           0.999983372635775 -1.04813089176699 
! Gamma         50               0                
! Port Impedance         50               0                
0.001                          0.99998247409837 -1.17601625591342 
! Gamma         0                0                
! Port Impedance         50               0                
0.00112201845430196            0.999981347093397 -1.31950354313523 
! Gamma         0                0                
! Port Impedance         50               0                
0.00125892541179417            0.999979941939136 -1.48049546303723 
! Gamma         0                0                
! Port Impedance         50               0                
0.00141253754462276            0.999978194185984 -1.66112647499078 
! Gamma         0                0                
! Port Impedance         50               0                
0.00158489319246111            0.999976026731118 -1.86379089258361 
! Gamma         0                0                
! Port Impedance         50               0                
0.00177827941003892            0.999973348544845 -2.09117434773697 
! Gamma         0                0                
! Port Impedance         50               0                
0.00199526231496888            0.999970053930153 -2.34628899396057 
! Gamma         0                0                
! Port Impedance         50               0                
0.00223872113856834            0.999966022712804 -2.63251286381147 
! Gamma         0                0                
! Port Impedance         50               0                
0.00251188643150958            0.999961121844823 -2.95363382935791 
! Gamma         0                0                
! Port Impedance         50               0                
0.00281838293126445            0.999955208916154 -3.31389864538227 
! Gamma         0                0                
! Port Impedance         50               0                
0.00316227766016838            0.999948137924544 -3.71806758003545 
! Gamma         0                0                
! Port Impedance         50               0                
0.00354813389233575            0.999939767251465 -4.17147515201932 
! Gamma         0                0                
! Port Impedance         50               0                
0.00398107170553497            0.999929969054365 -4.68009749033571 
! Gamma         0                0                
! Port Impedance         50               0                
0.00446683592150963            0.999918638236525 -5.25062680243533 
! Gamma         0                0                
! Port Impedance         50               0                
0.00501187233627272            0.999905698015327 -5.8905533653208 
! Gamma         0                0                
! Port Impedance         50               0                
0.00562341325190349            0.999891098338542 -6.60825532219105 
! Gamma         0                0                
! Port Impedance         50               0                
0.00630957344480193            0.99987480358654 -7.41309634713998 
! Gamma         0                0                
! Port Impedance         50               0                
0.00707945784384137            0.999856767548255 -8.3155308942852 
! Gamma         0                0                
! Port Impedance         50               0                
0.00794328234724282            0.999836896385764 -9.32721622355156 
! Gamma         0                0                
! Port Impedance         50               0                
0.00891250938133746            0.999815003279845 -10.4611296230559 
! Gamma         0                0                
! Port Impedance         50               0                
0.01                           0.999790760379035 -11.7316881347175 
! Gamma         0                0                
! Port Impedance         50               0                
0.0112201845430196             0.999763653668233 -13.1548665151289 
! Gamma         0                0                
! Port Impedance         50               0                
0.0125892541179417             0.999732944576566 -14.7483069773932 
! Gamma         0                0                
! Port Impedance         50               0                
0.0141253754462276             0.999697639690251 -16.5314112822221 
! Gamma         0                0                
! Port Impedance         50               0                
0.0158489319246111             0.99965646826438 -18.5254017807796 
! Gamma         0                0                
! Port Impedance         50               0                
0.0177827941003892             0.99960786734633 -20.7533328713523 
! Gamma         0                0                
! Port Impedance         50               0                
0.0199526231496888             0.999549976517025 -23.2400279029657 
! Gamma         0                0                
! Port Impedance         50               0                
0.0223872113856834             0.999480648260802 -26.0119089127724 
! Gamma         0                0                
! Port Impedance         50               0                
0.0251188643150958             0.999397485279491 -29.0966781663095 
! Gamma         0                0                
! Port Impedance         50               0                
0.0281838293126445             0.999297921985648 -32.522802390502 
! Gamma         0                0                
! Port Impedance         50               0                
0.0316227766016838             0.99917937276341 -36.3187450146511 
! Gamma         0                0                
! Port Impedance         50               0                
0.0354813389233575             0.999039471985874 -40.5118923259014 
! Gamma         0                0                
! Port Impedance         50               0                
0.0398107170553497             0.998876425613916 -45.127131664948 
! Gamma         0                0                
! Port Impedance         50               0                
0.0446683592150963             0.998689473542907 -50.1850706828319 
! Gamma         0                0                
! Port Impedance         50               0                
0.0501187233627272             0.998479413827348 -55.6999435114004 
! Gamma         0                0                
! Port Impedance         50               0                
0.0562341325190349             0.998249049506855 -61.6773366603416 
! Gamma         0                0                
! Port Impedance         50               0                
0.0630957344480193             0.998003271524016 -68.1119801352117 
! Gamma         0                0                
! Port Impedance         50               0                
0.0707945784384137             0.997748280368789 -74.985968009638 