! Touchstone file exported from HFSS 2024.2.0
!        File:           C:/00_Asenjo/00_Project/Ketupa/simulation/Ansys_HFSS/HFSS_Projects/Wifi_patch_antenna.aedt
!        Generated:      06:15:14 PM Jul 11, 2025
!        Design:         wifi_2.4G
!        Project:        Wifi_patch_antenna
!        Setup:          Setup1
!        Solution:       Sweep
!
! Variables:
!        L_50ohm = 8mm
!        L_ant = 41mm
!        L_lamda = 9.5mm
!        L_open = 4mm
!        T_HOZ_Plating = 40um
!        W_50ohm = 3.2mm
!        W_ant = 32.5mm
!        W_lamda = 3.2mm
!        W_open = 9.5mm
!        X_0 = 15mm
!        Y_0 = 15mm
!        lamda = 122mm
!        subH = 1.5mm
!        subX = 70mm
!        subY = 70mm
!
# GHz S MA R 50.000000
! Terminal data exported
! Port[1] = Ant_T1
0                              1.00002359106031 0                
! Gamma         50               0                
! Port Impedance         50               0                
1E-09                          1.00002359106031 -1.07166952602359E-06 
! Gamma         50               0                
! Port Impedance         50               0                
1.12201845430196E-09           1.00002359106031 -1.2024329851115E-06 
! Gamma         50               0                
! Port Impedance         50               0                
1.25892541179417E-09           1.00002359106031 -1.3491519993565E-06 
! Gamma         50               0                
! Port Impedance         50               0                
1.41253754462275E-09           1.00002359106031 -1.51377344093639E-06 
! Gamma         50               0                
! Port Impedance         50               0                
1.58489319246111E-09           1.00002359106031 -1.69848173636281E-06 
! Gamma         50               0                
! Port Impedance         50               0                
1.77827941003892E-09           1.00002359106031 -1.90572785249392E-06 
! Gamma         50               0                
! Port Impedance         50               0                
1.99526231496888E-09           1.00002359106031 -2.13826181937542E-06 
! Gamma         50               0                
! Port Impedance         50               0                
2.23872113856834E-09           1.00002359106031 -2.39916922146852E-06 
! Gamma         50               0                
! Port Impedance         50               0                
2.51188643150958E-09           1.00002359106031 -2.69191214148095E-06 
! Gamma         50               0                
! Port Impedance         50               0                
2.81838293126445E-09           1.00002359106031 -3.02037510010114E-06 
! Gamma         50               0                
! Port Impedance         50               0                
3.16227766016838E-09           1.00002359106031 -3.38891660122762E-06 
! Gamma         50               0                
! Port Impedance         50               0                
3.54813389233575E-09           1.00002359106031 -3.80242696666768E-06 
! Gamma         50               0                
! Port Impedance         50               0                
3.98107170553497E-09           1.00002359106031 -4.26639322773657E-06 
! Gamma         50               0                
! Port Impedance         50               0                
4.46683592150963E-09           1.00002359106031 -4.78697193482935E-06 
! Gamma         50               0                
! Port Impedance         50               0                
5.01187233627272E-09           1.00002359106031 -5.37107085110411E-06 
! Gamma         50               0                
! Port Impedance         50               0                
5.62341325190349E-09           1.00002359106031 -6.02644061430216E-06 
! Gamma         50               0                
! Port Impedance         50               0                
6.30957344480193E-09           1.00002359106031 -6.76177758300188E-06 
! Gamma         50               0                
! Port Impedance         50               0                
7.07945784384138E-09           1.00002359106031 -7.58683923201343E-06 
! Gamma         50               0                
! Port Impedance         50               0                
7.94328234724282E-09           1.00002359106031 -8.5125736281412E-06 
! Gamma         50               0                
! Port Impedance         50               0                
8.91250938133745E-09           1.00002359106031 -9.55126470437864E-06 
! Gamma         50               0                
! Port Impedance         50               0                
1E-08                          1.00002359106031 -1.07166952602358E-05 
! Gamma         50               0                
! Port Impedance         50               0                
1.12201845430196E-08           1.00002359106031 -1.20243298511149E-05 
! Gamma         50               0                
! Port Impedance         50               0                
1.25892541179417E-08           1.00002359106031 -1.34915199935649E-05 
! Gamma         50               0                
! Port Impedance         50               0                
1.41253754462275E-08           1.00002359106031 -1.51377344093637E-05 
! Gamma         50               0                
! Port Impedance         50               0                
1.58489319246111E-08           1.00002359106031 -1.69848173636279E-05 
! Gamma         50               0                
! Port Impedance         50               0                
1.77827941003892E-08           1.00002359106031 -1.90572785249388E-05 
! Gamma         50               0                
! Port Impedance         50               0                
1.99526231496888E-08           1.00002359106031 -2.13826181937538E-05 
! Gamma         50               0                
! Port Impedance         50               0                
2.23872113856834E-08           1.00002359106031 -2.39916922146845E-05 
! Gamma         50               0                
! Port Impedance         50               0                
2.51188643150958E-08           1.0000235910603  -2.69191214148085E-05 
! Gamma         50               0                
! Port Impedance         50               0                
2.81838293126445E-08           1.0000235910603  -3.02037510010101E-05 
! Gamma         50               0                
! Port Impedance         50               0                
3.16227766016838E-08           1.0000235910603  -3.38891660122743E-05 
! Gamma         50               0                
! Port Impedance         50               0                
3.54813389233575E-08           1.0000235910603  -3.80242696666741E-05 
! Gamma         50               0                
! Port Impedance         50               0                
3.98107170553497E-08           1.00002359106029 -4.26639322773619E-05 
! Gamma         50               0                
! Port Impedance         50               0                
4.46683592150963E-08           1.00002359106029 -4.78697193482881E-05 
! Gamma         50               0                
! Port Impedance         50               0                
5.01187233627272E-08           1.00002359106028 -5.37107085110334E-05 
! Gamma         50               0                
! Port Impedance         50               0                
5.62341325190349E-08           1.00002359106028 -6.02644061430108E-05 
! Gamma         50               0                
! Port Impedance         50               0                
6.30957344480193E-08           1.00002359106027 -6.76177758300035E-05 
! Gamma         50               0                
! Port Impedance         50               0                
7.07945784384138E-08           1.00002359106025 -7.58683923201128E-05 
! Gamma         50               0                
! Port Impedance         50               0                
7.94328234724281E-08           1.00002359106024 -8.51257362813815E-05 
! Gamma         50               0                
! Port Impedance         50               0                
8.91250938133746E-08           1.00002359106022 -9.55126470437433E-05 
! Gamma         50               0                
! Port Impedance         50               0                
1E-07                          1.00002359106019 -0.000107166952602297 
! Gamma         50               0                
! Port Impedance         50               0                
1.12201845430196E-07           1.00002359106016 -0.000120243298511064 
! Gamma         50               0                
! Port Impedance         50               0                
1.25892541179417E-07           1.00002359106013 -0.000134915199935528 
! Gamma         50               0                
! Port Impedance         50               0                
1.41253754462275E-07           1.00002359106008 -0.000151377344093466 
! Gamma         50               0                
! Port Impedance         50               0                
1.58489319246111E-07           1.00002359106002 -0.000169848173636037 
! Gamma         50               0                
! Port Impedance         50               0                
1.77827941003892E-07           1.00002359105994 -0.000190572785249046 
! Gamma         50               0                
! Port Impedance         50               0                
1.99526231496888E-07           1.00002359105984 -0.000213826181937055 
! Gamma         50               0                
! Port Impedance         50               0                
2.23872113856834E-07           1.00002359105972 -0.000239916922146163 
! Gamma         50               0                
! Port Impedance         50               0                
2.51188643150958E-07           1.00002359105957 -0.000269191214147122 
! Gamma         50               0                
! Port Impedance         50               0                
2.81838293126445E-07           1.00002359105937 -0.00030203751000874 
! Gamma         50               0                
! Port Impedance         50               0                
3.16227766016838E-07           1.00002359105913 -0.000338891660120821 
! Gamma         50               0                
! Port Impedance         50               0                
3.54813389233575E-07           1.00002359105883 -0.000380242696664026 
! Gamma         50               0                
! Port Impedance         50               0                
3.98107170553497E-07           1.00002359105844 -0.000426639322769784 
! Gamma         50               0                
! Port Impedance         50               0                
4.46683592150963E-07           1.00002359105796 -0.000478697193477464 
! Gamma         50               0                
! Port Impedance         50               0                
5.01187233627272E-07           1.00002359105735 -0.000537107085102683 
! Gamma         50               0                
! Port Impedance         50               0                
5.62341325190349E-07           1.00002359105658 -0.000602644061419299 
! Gamma         50               0                
! Port Impedance         50               0                
6.30957344480193E-07           1.00002359105561 -0.000676177758284768 
! Gamma         50               0                
! Port Impedance         50               0                
7.07945784384138E-07           1.0000235910544  -0.000758683923179562 
! Gamma         50               0                
! Port Impedance         50               0                
7.94328234724281E-07           1.00002359105287 -0.000851257362783353 
! Gamma         50               0                
! Port Impedance         50               0                
8.91250938133746E-07           1.00002359105094 -0.000955126470394404 
! Gamma         50               0                
! Port Impedance         50               0                
1E-06                          1.00002359104851 -0.00107166952596219 
! Gamma         50               0                
! Port Impedance         50               0                
1.12201845430196E-06           1.00002359104545 -0.00120243298502478 
! Gamma         50               0                
! Port Impedance         50               0                
1.25892541179417E-06           1.00002359104161 -0.00134915199923401 
! Gamma         50               0                
! Port Impedance         50               0                
1.41253754462275E-06           1.00002359103676 -0.00151377344076336 
! Gamma         50               0                
! Port Impedance         50               0                
1.58489319246111E-06           1.00002359103067 -0.0016984817361184 
! Gamma         50               0                
! Port Impedance         50               0                
1.77827941003892E-06           1.00002359102299 -0.00190572785214867 
! Gamma         50               0                
! Port Impedance         50               0                
1.99526231496888E-06           1.00002359101333 -0.00213826181888775 
! Gamma         50               0                
! Port Impedance         50               0                
2.23872113856834E-06           1.00002359100116 -0.00239916922077966 
! Gamma         50               0                
! Port Impedance         50               0                
2.51188643150958E-06           1.00002359098585 -0.00269191214050792 
! Gamma         50               0                
! Port Impedance         50               0                
2.81838293126445E-06           1.00002359096657 -0.0030203750987267 
! Gamma         50               0                
! Port Impedance         50               0                
3.16227766016838E-06           1.00002359094229 -0.00338891659928617 
! Gamma         50               0                
! Port Impedance         50               0                
3.54813389233575E-06           1.00002359091173 -0.0038024269639253 
! Gamma         50               0                
! Port Impedance         50               0                
3.98107170553497E-06           1.00002359087326 -0.00426639322386286 
! Gamma         50               0                
! Port Impedance         50               0                
4.46683592150963E-06           1.00002359082483 -0.00478697192935758 
! Gamma         50               0                
! Port Impedance         50               0                
5.01187233627272E-06           1.00002359076386 -0.00537107084337503 
! Gamma         50               0                
! Port Impedance         50               0                
5.62341325190349E-06           1.0000235906871  -0.00602644060338454 
! Gamma         50               0                
! Port Impedance         50               0                
6.30957344480193E-06           1.00002359059047 -0.00676177756758033 
! Gamma         50               0                
! Port Impedance         50               0                
7.07945784384138E-06           1.00002359046881 -0.00758683921022993 
! Gamma         50               0                
! Port Impedance         50               0                
7.94328234724281E-06           1.00002359031566 -0.00851257359737117 
! Gamma         50               0                
! Port Impedance         50               0                
8.91250938133746E-06           1.00002359012285 -0.00955126466091482 
! Gamma         50               0                
! Port Impedance         50               0                
1E-05                          1.00002358988012 -0.0107166951988415 
! Gamma         50               0                
! Port Impedance         50               0                
1.12201845430196E-05           1.00002358957453 -0.0120243297643932 
! Gamma         50               0                
! Port Impedance         50               0                
1.25892541179417E-05           1.00002358918983 -0.0134915198710672 
! Gamma         50               0                
! Port Impedance         50               0                
1.41253754462276E-05           1.00002358870551 -0.0151377342363311 
! Gamma         50               0                
! Port Impedance         50               0                
1.58489319246111E-05           1.00002358809579 -0.0169848171192129 
! Gamma         50               0                
! Port Impedance         50               0                
1.77827941003892E-05           1.00002358732821 -0.0190572781796935 
! Gamma         50               0                
! Port Impedance         50               0                
1.99526231496888E-05           1.00002358636187 -0.0213826177060817 
! Gamma         50               0                
! Port Impedance         50               0                
2.23872113856834E-05           1.00002358514532 -0.0239916915258294 
! Gamma         50               0                
! Port Impedance         50               0                
2.51188643150958E-05           1.00002358361377 -0.026919120441775 
! Gamma         50               0                
! Port Impedance         50               0                
2.81838293126445E-05           1.00002358168567 -0.0302037496265637 
! Gamma         50               0                
! Port Impedance         50               0                
3.16227766016838E-05           1.00002357925833 -0.0338891640708173 
! Gamma         50               0                
! Port Impedance         50               0                
3.54813389233575E-05           1.00002357620249 -0.0380242669242933 
! Gamma         50               0                
! Port Impedance         50               0                
3.98107170553497E-05           1.00002357235541 -0.0426639284036465 
! Gamma         50               0                
! Port Impedance         50               0                
4.46683592150963E-05           1.00002356751222 -0.0478697138765203 
! Gamma         50               0                
! Port Impedance         50               0                
5.01187233627273E-05           1.00002356141498 -0.053710700781957 
! Gamma         50               0                
! Port Impedance         50               0                
5.62341325190349E-05           1.00002355373899 -0.0602643952254019 
! Gamma         50               0                
! Port Impedance         50               0                
6.30957344480193E-05           1.00002354407547 -0.0676177604084743 
! Gamma         50               0                
! Port Impedance         50               0                
7.07945784384137E-05           1.00002353190976 -0.0758683705366295 
! Gamma         50               0                
! Port Impedance         50               0                
7.94328234724282E-05           1.00002351659395 -0.0851257055114041 
! Gamma         50               0                
! Port Impedance         50               0                
8.91250938133746E-05           1.00002349731237 -0.0955126035800132 
! Gamma         50               0                
! Port Impedance         50               0                
0.0001                         1.00002347303808 -0.107166891208179 
! Gamma         50               0                
! Port Impedance         50               0                
0.000112201845430196           1.00002344247824 -0.120243211789625 
! Gamma         50               0                
! Port Impedance         50               0                
0.000125892541179417           1.00002340400516 -0.134915077438343 
! Gamma         50               0                
! Port Impedance         50               0                
0.000141253754462276           1.0000233555696  -0.151377171061776 
! Gamma         50               0                
! Port Impedance         50               0                
0.000158489319246111           1.00002329459154 -0.169847929222605 
! Gamma         50               0                
! Port Impedance         50               0                
0.000177827941003892           1.00002321782264 -0.190572440006478 
! Gamma         50               0                
! Port Impedance         50               0                
0.000199526231496888           1.00002312117306 -0.213825694269996 
! Gamma         50               0                
! Port Impedance         50               0                
0.000223872113856834           1.00002299949325 -0.239916233299968 
! Gamma         50               0                
! Port Impedance         50               0                
0.000251188643150958           1.00002284629923 -0.269190241129272 
! Gamma         50               0                
! Port Impedance         50               0                
0.000281838293126446           1.00002265342636 -0.302036135590296 
! Gamma         50               0                
! Port Impedance         50               0                
0.000316227766016838           1.00002241059314 -0.338889718713483 
! Gamma         50               0                
! Port Impedance         50               0                
0.000354813389233575           1.00002210485151 -0.380239954371616 
! Gamma         50               0                
! Port Impedance         50               0                
0.000398107170553497           1.00002171989373 -0.426635449211418 
! Gamma         50               0                
! Port Impedance         50               0                
0.000446683592150963           1.00002123517839 -0.478691721988853 
! Gamma         50               0                
! Port Impedance         50               0                
0.000501187233627273           1.00002062482765 -0.537099356522752 
! Gamma         50               0                
! Port Impedance         50               0                
0.000562341325190349           1.00001985623509 -0.60263314469342 
! Gamma         50               0                
! Port Impedance         50               0                
0.000630957344480193           1.00001888830714 -0.6761623383258 
! Gamma         50               0                
! Port Impedance         50               0                
0.000707945784384137           1.00001766923939 -0.758662142488646 
! Gamma         50               0                
! Port Impedance         50               0                
0.000794328234724282           1.00001613370202 -0.851226597771171 
! Gamma         50               0                
! Port Impedance         50               0                
0.000891250938133746           1.00001419927228 -0.955083015493833 
! Gamma         50               0                
! Port Impedance         50               0                
0.001                          1.00001176143943 -1.07160814737475 
! Gamma         0                0                
! Port Impedance         50               0                
0.00112201845430196            1.0000087164327  -1.20234645175708 
! Gamma         0                0                
! Port Impedance         50               0                
0.00125892541179417            1.00000495333288 -1.34903045540658 
! Gamma         0                0                
! Port Impedance         50               0                
0.00141253754462276            1.00000032351091 -1.51360337693451 
! Gamma         0                0                
! Port Impedance         50               0                
0.00158489319246111            0.999994658263997 -1.69824475856684 
! Gamma         0                0                
! Port Impedance         50               0                
0.00177827941003892            0.999987771533482 -1.9053991074667 
! Gamma         0                0                
! Port Impedance         50               0                
0.00199526231496888            0.999979465788487 -2.13780800808205 
! Gamma         0                0                
! Port Impedance         50               0                
0.00223872113856834            0.999969541943751 -2.39854612752256 
! Gamma         0                0                
! Port Impedance         50               0                
0.00251188643150958            0.999957813813317 -2.69106157201793 
! Gamma         0                0                
! Port Impedance         50               0                
0.00281838293126445            0.999944126783309 -3.01922107141018 
! Gamma         0                0                
! Port Impedance         50               0                
0.00316227766016838            0.999928379065222 -3.38736045765754 
! Gamma         0                0                
! Port Impedance         50               0                
0.00354813389233575            0.999910542220861 -3.80034085377255 
! Gamma         0                0                
! Port Impedance         50               0                
0.00398107170553497            0.999890676087872 -4.26361090626878 
! Gamma         0                0                
! Port Impedance         50               0                
0.00446683592150963            0.999868932498726 -4.78327530214888 
! Gamma         0                0                
! Port Impedance         50               0                
0.00501187233627272            0.999845542995971 -5.36616974912882 
! Gamma         0                0                
! Port Impedance         50               0                
0.00562341325190349            0.999820788396076 -6.01994258809564 
! Gamma         0                0                
! Port Impedance         50               0                
0.00630957344480193            0.999794952049889 -6.75314321685004 
! Gamma         0                0                
! Port Impedance         50               0                
0.00707945784384137            0.999768262722425 -7.57531742507978 
! Gamma         0                0                
! Port Impedance         50               0                
0.00794328234724282            0.999740835625564 -8.49710941650295 
! Gamma         0                0                
! Port Impedance         50               0                
0.00891250938133746            0.999712620227401 -9.53036959010714 
! Gamma         0                0                
! Port Impedance         50               0                
0.01                           0.999683361045029 -10.6882660041592 
! Gamma         0                0                
! Port Impedance         50               0                
0.0112201845430196             0.999652573823819 -11.9853958445594 
! Gamma         0                0                
! Port Impedance         50               0                
0.0125892541179417             0.999619535992394 -13.437891136049 
! Gamma         0                0                
! Port Impedance         50               0                
0.0141253754462276             0.999583288498441 -15.0635102595413 
! Gamma         0                0                
! Port Impedance         50               0                
0.0158489319246111             0.999542646737866 -16.8817033667504 
! Gamma         0                0                
! Port Impedance         50               0                
0.0177827941003892             0.99949622114825 -18.9136352675556 
! Gamma         0                0                
! Port Impedance         50               0                
0.0199526231496888             0.999442452559242 -21.182143604163 
! Gamma         0                0                
! Port Impedance         50               0                
0.0223872113856834             0.999379672902425 -23.7116030723723 
! Gamma         0                0                
! Port Impedance         50               0                
0.0251188643150958             0.99930620767856 -26.5276583646751 
! Gamma         0                0                
! Port Impedance         50               0                
0.0281838293126445             0.999220541580269 -29.6567801890374 
! Gamma         0                0                
! Port Impedance         50               0                
0.0316227766016838             0.999121570682624 -33.1255918214243 
! Gamma         0                0                
! Port Impedance         50               0                
0.0354813389233575             0.99900895933396 -36.9599111059453 
! Gamma         0                0                
! Port Impedance         50               0                
0.0398107170553497             0.998883599842402 -41.1834591697708 
! Gamma         0                0                
! Port Impedance         50               0                
0.0446683592150963             0.998748127251074 -45.8162085494536 
! Gamma         0                0                
! Port Impedance         50               0                
0.0501187233627272             0.99860735703672 -50.8723869063089 
! Gamma         0                0                
! Port Impedance         50               0                
0.0562341325190349             0.998468381634024 -56.3582234575062 
! Gamma         0                0                
! Port Impedance         50               0                
0.0630957344480193             0.998339889809551 -62.2696231746283 
! Gamma         0                0                
! Port Impedance         50               0                
0.0707945784384137             0.998230102357729 -68.5900664709723 
! Gamma         0                0                
! Port Impedance         50               0                