! Touchstone file exported from HFSS 2025.1.0
!        File:           E:/00_Asenjo/00_Project/Ketupa/simulation/Ansys_HFSS_from_si9000/HFSS_Projects/Edge-Coupled_Offset_Stripline_1B1A_99.615 ohm_20250814_010334.aedt
!        Generated:      01:05:41 AM Aug 14, 2025
!        Design:         Edge-Coupled_Offset_Stripline_1B1A_(1)
!        Project:        Edge-Coupled_Offset_Stripline_1B1A_99.615 ohm_20250814_010334
!        Setup:          Setup1
!        Solution:       Sweep
!
! Variables:
!        $Er1 = 3.6
!        $Er2 = 3.6
!        H1 = 200um
!        H2 = 200um
!        S1 = 190um
!        T1 = 15um
!        W1 = 160um
!        W2 = 150um
!        subH = 0.4mm
!        subX = 5mm
!        subY = 5mm
!
# GHz S MA R 50.000000
! Terminal data exported
! Port[1] = Comm1
! Port[2] = Diff1
! Port[3] = Comm2
! Port[4] = Diff2
0                              0.000467210769602988 0                0.00042872815398551 180              0.999802550267962 0                0.000250456027809886 0                
                               0.00042897326920291 180              0.00104823109253183 0                0.000251109618432101 180              0.999250935797792 0                
                               0.999802353376193 0                0.000251431205224246 180              0.000102011566184224 180              0.000430090573258067 0                
                               0.000250784432694479 0                0.999251132409236 0                0.000429857197759745 0                0.000440465880113135 0                
! Gamma         25               0                100              0                25               0                100              0                
! Port Impedance         50               0                50               0                50               0                50               0                
1E-09                          0.00046721076994416 -8.32176942429243E-07 0.000428728153984773 -179.999978372193 0.999802550267961 -1.35703306435901E-08 0.000250456027809434 2.09509073129059E-05 
                               0.000428973269202335 -179.999978396961 0.00104823109305668 1.76911554517433E-05 0.000251109618431555 -179.999978777468 0.999250935797807 -1.62468343066256E-08 
                               0.999802353376648 -1.35898483197978E-08 0.000251431205223628 -179.999978807982 0.000102011566070691 -179.999900495589 0.000430090573257787 2.1558448823609E-05 
                               0.000250784432694346 2.09226088021511E-05 0.999251132409365 -1.62273137714172E-08 0.000429857197759565 2.15851586756763E-05 0.000440465880410843 5.79020807075938E-06 
! Gamma         25               0                100              0                25               0                100              0                
! Port Impedance         50               0                50               0                50               0                50               0                
1.12201845430196E-09           0.000467210768792747 -9.33717875756242E-07 0.000428728153984939 -179.999975733201 0.999802550267236 -1.52261614089986E-08 0.000250456027809053 2.35073046394806E-05 
                               0.000428973269201735 -179.999975760991 0.00104823109267284 1.98498028998104E-05 0.000251109618431216 -179.999976187928 0.999250935797936 -1.8229247913201E-08 
                               0.999802353375468 -1.52480606010732E-08 0.000251431205223883 -179.999976222165 0.000102011566880694 -179.999888354215 0.000430090573257308 2.41889774262199E-05 
                               0.00025078443269418 2.34755531880966E-05 0.999251132409607 -1.82073455157484E-08 0.000429857197759387 2.42189463731181E-05 0.000440465880026707 6.4967203176194E-06 
! Gamma         25               0                100              0                25               0                100              0                
! Port Impedance         50               0                50               0                50               0                50               0                
1.25892541179417E-09           0.000467210769105553 -1.04764869337314E-06 0.000428728153985085 -179.999972772204 0.999802550267606 -1.70840340902985E-08 0.000250456027808459 2.63756296164891E-05 
                               0.00042897326920188 -179.999972803385 0.00104823109263039 2.22718451694784E-05 0.000251109618431443 -179.999973282416 0.999250935797722 -2.04535525719811E-08 
                               0.999802353375838 -1.7108605387015E-08 0.000251431205223951 -179.99997332083 0.000102011566568049 -179.999874731369 0.000430090573256581 2.71404790629794E-05 
                               0.000250784432694096 2.63400039020955E-05 0.999251132409394 -2.04289776758957E-08 0.000429857197759203 2.71741047744538E-05 0.000440465879869722 7.28944009057854E-06 
! Gamma         25               0                100              0                25               0                100              0                
! Port Impedance         50               0                50               0                50               0                50               0                
1.41253754462275E-09           0.000467210769105497 -1.17548118598615E-06 0.000428728153984089 -179.99996944991 0.999802550267379 -1.91686015388204E-08 0.00025045602780849 2.95939431734973E-05 
                               0.000428973269201346 -179.999969484896 0.00104823109250212 2.49894212988843E-05 0.000251109618431148 -179.999970022377 0.999250935797879 -2.29492634395758E-08 
                               0.999802353375724 -1.91961709835181E-08 0.000251431205223341 -179.999970065479 0.00010201156668191 -179.999859446284 0.000430090573256902 3.04521183671998E-05 
                               0.000250784432694319 2.95539704643722E-05 0.999251132409664 -2.29216899529842E-08 0.000429857197759519 3.04898470359619E-05 0.000440465879741825 8.17888630889851E-06 
! Gamma         25               0                100              0                25               0                100              0                
! Port Impedance         50               0                50               0                50               0                50               0                
1.58489319246111E-09           0.00046721076906292 -1.31891158867304E-06 0.000428728153984365 -179.999965722235 0.999802550267251 -2.15075246621415E-08 0.000250456027808433 3.32049503762872E-05 
                               0.000428973269201519 -179.99996576149 0.00104823109247378 2.80385918629186E-05 0.000251109618431079 -179.999966364554 0.999250935798078 -2.57494970975965E-08 
                               0.99980235337571 -2.15384580944105E-08 0.000251431205223481 -179.999966412915 0.000102011566724567 -179.999842296137 0.000430090573256476 3.41678387806543E-05 
                               0.000250784432694019 3.31601002590265E-05 0.999251132409409 -2.57185591342675E-08 0.000429857197758883 3.42101710432838E-05 0.000440465880167097 9.17686137254196E-06 
! Gamma         25               0                100              0                25               0                100              0                
! Port Impedance         50               0                50               0                50               0                50               0                
1.77827941003892E-09           0.000467210768991755 -1.47984318346497E-06 0.000428728153984383 -179.999961539715 0.999802550267265 -2.41318395880475E-08 0.000250456027809078 3.72565670961549E-05 
                               0.000428973269201373 -179.99996158376 0.00104823109231772 3.14598175080086E-05 0.000251109618431408 -179.999962260409 0.999250935797751 -2.88914109266299E-08 
                               0.999802353375724 -2.41665474826833E-08 0.00025143120522345 -179.999962314671 0.000102011566909408 -179.999823053356 0.000430090573256717 3.83369456554077E-05 
                               0.000250784432693305 3.72062444371764E-05 0.999251132409084 -2.88566979613704E-08 0.000429857197758143 3.83844432353941E-05 0.00044046587989526 1.02966077992036E-05 
! Gamma         25               0                100              0                25               0                100              0                
! Port Impedance         50               0                50               0                50               0                50               0                
1.99526231496888E-09           0.000467210769247717 -1.66041135963259E-06 0.000428728153983533 -179.999956846851 0.999802550267464 -2.70763693688885E-08 0.000250456027808678 4.18025558257588E-05 
                               0.000428973269200819 -179.99995689627 0.00104823109261502 3.52984957925959E-05 0.000251109618430771 -179.999957655482 0.999250935797766 -3.24166962247179E-08 
                               0.999802353375809 -2.71153122498041E-08 0.000251431205223066 -179.999957716365 0.000102011566540052 -179.999801462599 0.00043009057325677 4.30147605068254E-05 
                               0.000250784432693606 4.17460928736149E-05 0.999251132409326 -3.23777476455327E-08 0.000429857197758473 4.30680536681018E-05 0.000440465880079892 1.15529839694905E-05 
! Gamma         25               0                100              0                25               0                100              0                
! Port Impedance         50               0                50               0                50               0                50               0                
2.23872113856834E-09           0.000467210769602988 -1.86301211248033E-06 0.000428728153983771 -179.99995158137 0.999802550268075 -3.03801860742846E-08 0.000250456027808088 4.69032390737715E-05 
                               0.00042897326920089 -179.999951636819 0.00104823109264388 3.96055636861527E-05 0.000251109618430985 -179.99995248867 0.99925093579768 -3.63721313952508E-08 
                               0.99980235337642 -3.04238807053601E-08 0.000251431205223379 -179.999952556981 0.000102011566071363 -179.999777237372 0.000430090573255923 4.82633550962294E-05 
                               0.000250784432693143 4.68398865993566E-05 0.999251132409356 -3.63284303670837E-08 0.000429857197757733 4.83231510066043E-05 0.00044046587999252 1.29626612275224E-05 
! Gamma         25               0                100              0                25               0                100              0                
! Port Impedance         50               0                50               0                50               0                50               0                
2.51188643150958E-09           0.000467210769290294 -2.09033390845479E-06 0.000428728153982842 -179.999945673404 0.999802550267706 -3.40871293899442E-08 0.00025045602780809 5.26262998072423E-05 
                               0.000428973269200209 -179.999945735618 0.00104823109230244 4.44381733648176E-05 0.000251109618430818 -179.999946691411 0.999250935798136 -4.08102026524052E-08 
                               0.999802353376051 -3.41361555750631E-08 0.000251431205222927 -179.999946768058 0.000102011566384146 -179.999750056221 0.000430090573256094 5.415237508441E-05 
                               0.000250784432692823 5.25552171619984E-05 0.999251132409699 -4.07611692854947E-08 0.000429857197757342 5.42194671994492E-05 0.000440465879763706 1.45443451004551E-05 
! Gamma         25               0                100              0                25               0                100              0                
! Port Impedance         50               0                50               0                50               0                50               0                
2.81838293126445E-09           0.000467210769233451 -2.34539329154207E-06 0.000428728153982136 -179.999939044557 0.999802550267649 -3.82463882487644E-08 0.000250456027807528 5.90476795651767E-05 
                               0.000428973269199281 -179.999939114362 0.00104823109258563 4.9860450595669E-05 0.000251109618430048 -179.999940186779 0.999250935797853 -4.5789800489286E-08 
                               0.99980235337588 -3.83013965455391E-08 0.000251431205222115 -179.999940272778 0.000102011566554872 -179.999719558468 0.000430090573254915 6.07599641889405E-05 
                               0.000250784432692435 5.8967923525405E-05 0.999251132409303 -4.57347841531329E-08 0.000429857197756481 6.08352427801329E-05 0.000440465880159226 1.63190236235386E-05 
! Gamma         25               0                100              0                25               0                100              0                
! Port Impedance         50               0                50               0                50               0                50               0                
3.16227766016838E-09           0.000467210769560356 -2.63157465882323E-06 0.00042872815398177 -179.999931606868 0.999802550267834 -4.29131534814875E-08 0.000250456027807649 6.62525861557597E-05 
                               0.000428973269198519 -179.999931685191 0.00104823109242864 5.59443457107883E-05 0.000251109618429584 -179.999932888462 0.999250935797754 -5.13770011759189E-08 
                               0.999802353376179 -4.29748737913995E-08 0.000251431205222266 -179.999932984955 0.000102011566228395 -179.999685339424 0.000430090573254549 6.81738011026924E-05 
                               0.000250784432692389 6.61630984071724E-05 0.999251132409319 -5.13152718277479E-08 0.00042985719775617 6.82582650711277E-05 0.000440465880000358 1.83102456667321E-05 
! Gamma         25               0                100              0                25               0                100              0                
! Port Impedance         50               0                50               0                50               0                50               0                
3.54813389233575E-09           0.000467210769489246 -2.95267527558311E-06 0.00042872815398052 -179.999923261643 0.999802550267734 -4.81493501209522E-08 0.000250456027806382 7.43366243121849E-05 
                               0.000428973269197688 -179.999923349524 0.0010482310923853 6.27705883037551E-05 0.000251109618429264 -179.999924699616 0.999250935797997 -5.76459434617119E-08 
                               0.999802353376079 -4.82186014480676E-08 0.000251431205221446 -179.999924807883 0.000102011566186216 -179.999646945027 0.000430090573252884 7.64922629372226E-05 
                               0.000250784432691448 7.42362174068065E-05 0.999251132409565 -5.75766819954715E-08 0.000429857197754783 7.65870330685287E-05 0.000440465879840047 2.05444335331715E-05 
! Gamma         25               0                100              0                25               0                100              0                
! Port Impedance         50               0                50               0                50               0                50               0                
3.98107170553497E-09           0.000467210769318772 -3.31295612851387E-06 0.000428728153978644 -179.999913898148 0.999802550267563 -5.4024459368069E-08 0.000250456027806571 8.34070643084972E-05 
                               0.000428973269196282 -179.999913996751 0.00104823109232718 7.04297584650585E-05 0.000251109618428292 -179.99991551158 0.999250935798055 -6.46798123845115E-08 
                               0.999802353375909 -5.41021606592716E-08 0.000251431205220043 -179.999915633057 0.000102011566584455 -179.999603865807 0.000430090573252502 8.58257306266706E-05 
                               0.000250784432690745 8.32944059082398E-05 0.999251132409285 -6.4602099729064E-08 0.000429857197753518 8.59320644632321E-05 0.000440465880119997 2.30512335415102E-05 
! Gamma         25               0                100              0                25               0                100              0                
! Port Impedance         50               0                50               0                50               0                50               0                
4.46683592150963E-09           0.000467210768792748 -3.71719783776414E-06 0.000428728153976797 -179.999903392133 0.999802550267236 -6.06164403870161E-08 0.000250456027804728 9.35842653735249E-05 
                               0.000428973269194436 -179.999903502767 0.0010482310925104 7.90234886906908E-05 0.000251109618427154 -179.999905202433 0.999250935798299 -7.25719431021068E-08 
                               0.999802353375468 -6.07036226278621E-08 0.0002514312052191 -179.999905338733 0.000102011566883569 -179.999555530126 0.000430090573250271 9.62980536171724E-05 
                               0.000250784432689727 9.34578605687387E-05 0.999251132409758 -7.24847480745959E-08 0.000429857197751953 9.6417362143702E-05 0.000440465879958079 2.58639093691605E-05 
! Gamma         25               0                100              0                25               0                100              0                
! Port Impedance         50               0                50               0                50               0                50               0                
5.01187233627272E-09           0.00046721076954609 -4.17076470544435E-06 0.000428728153975795 -179.99989160419 0.999802550268018 -6.80127648024671E-08 0.000250456027803284 0.000105003272781473 
                               0.000428973269192595 -179.999891728324 0.00104823109250872 8.86658126814648E-05 0.000251109618426177 -179.999893635381 0.99925093579796 -8.14270594305442E-08 
                               0.999802353376249 -6.81105849030774E-08 0.000251431205218552 -179.999893788311 0.000102011566244987 -179.999501296595 0.000430090573247892 0.000108048193271918 
                               0.000250784432688661 0.000104861444257741 0.999251132409424 -8.13292249919066E-08 0.00042985719775007 0.000108182059640411 0.000440465880178081 2.90197836966035E-05 
! Gamma         25               0                100              0                25               0                100              0                
! Port Impedance         50               0                50               0                50               0                50               0                
5.62341325190349E-09           0.00046721076936135 -4.67967501563755E-06 0.00042872815397302 -179.999878377901 0.999802550267578 -7.63115772096962E-08 0.000250456027802059 0.000117815609822857 
                               0.000428973269190022 -179.999878517182 0.00104823109243549 9.94846780844884E-05 0.000251109618424618 -179.999880656935 0.999250935797948 -9.13626633318786E-08 
                               0.999802353376036 -7.64213332271233E-08 0.00025143120521735 -179.999880828525 0.000102011566544304 -179.999440445579 0.00043009057324557 0.000121232066804977 
                               0.000250784432687049 0.000117656475601949 0.999251132409418 -9.12528913067027E-08 0.000429857197747149 0.000121382267340983 0.000440465879984083 3.25607328628663E-05 
! Gamma         25               0                100              0                25               0                100              0                
! Port Impedance         50               0                50               0                50               0                50               0                
6.30957344480193E-09           0.000467210768963391 -5.25068146715176E-06 0.00042872815396907 -179.999863537761 0.999802550267293 -8.56229977984776E-08 0.000250456027800395 0.000132191288426122 
                               0.000428973269186646 -179.999863694036 0.00104823109238971 0.000111623644707935 0.000251109618422532 -179.999866094878 0.999250935797966 -1.02510594333527E-07 
                               0.999802353375639 -8.57461460549178E-08 0.000251431205214547 -179.999866287406 0.000102011566829781 -179.999372169616 0.000430090573242513 0.000136024616208439 
                               0.00025078443268507 0.000132012736893871 0.999251132409216 -1.0238742807414E-07 0.000429857197743814 0.000136193143981715 0.000440465880043609 3.65337430475878E-05 
! Gamma         25               0                100              0                25               0                100              0                
! Port Impedance         50               0                50               0                50               0                50               0                
7.07945784384138E-09           0.000467210769105611 -5.89136171651936E-06 0.000428728153965514 -179.999846886849 0.999802550267265 -9.60705837704559E-08 0.000250456027797715 0.000148321065111801 
                               0.000428973269182745 -179.999847062193 0.00104823109220171 0.000125243789316315 0.00025110961842026 -179.999849755982 0.999250935797956 -1.15018778577713E-07 
                               0.999802353375724 -9.62087583456792E-08 0.000251431205212544 -179.999849972002 0.000102011567030319 -179.999295562723 0.000430090573238015 0.000152622129624989 
                               0.000250784432682705 0.000148120726997133 0.999251132409215 -1.1488058376482E-07 0.000429857197739662 0.000152811220896491 0.000440465879958088 4.09915340061188E-05 
! Gamma         25               0                100              0                25               0                100              0                
! Port Impedance         50               0                50               0                50               0                50               0                
7.94328234724282E-09           0.000467210768906548 -6.61021640497538E-06 0.000428728153960126 -179.999828204219 0.99980255026735 -1.07792967889431E-07 0.000250456027793851 0.000166418972217684 
                               0.000428973269177035 -179.999828400958 0.0010482310926087 0.000140525842864701 0.000251109618417003 -179.999831423439 0.999250935797749 -1.29053192127267E-07 
                               0.999802353375695 -1.07948002251638E-07 0.000251431205209388 -179.999831665818 0.000102011566890262 -179.999209608375 0.000430090573232015 0.000171244845974364 
                               0.000250784432679687 0.000166194189155523 0.999251132409359 -1.28898135038604E-07 0.000429857197734704 0.000171457009870265 0.000440465880125038 4.59932576432651E-05 
! Gamma         25               0                100              0                25               0                100              0                
! Port Impedance         50               0                50               0                50               0                50               0                
8.91250938133745E-09           0.000467210768878238 -7.41678487601787E-06 0.000428728153953194 -179.999807241963 0.999802550267379 -1.20945699214109E-07 0.00025045602779084 0.00018672515797337 
                               0.000428973269170425 -179.999807462708 0.00104823109230471 0.000157672589045224 0.000251109618412904 -179.999810853988 0.999250935797856 -1.44800063162479E-07 
                               0.99980235337561 -1.21119650672551E-07 0.000251431205205028 -179.999811125941 0.00010201156680751 -179.999113166009 0.000430090573226168 0.000192139877386792 
                               0.000250784432675953 0.000186472947230436 0.999251132409251 -1.4462608622458E-07 0.000429857197728047 0.000192377929193923 0.000440465880145001 5.16052837660191E-05 
! Gamma         25               0                100              0                25               0                100              0                
! Port Impedance         50               0                50               0                50               0                50               0                
1E-08                          0.00046721076916229 -8.32176949465187E-06 0.000428728153945735 -179.999783721926 0.999802550267777 -1.35703306502665E-07 0.000250456027786044 0.000209509073128238 
                               0.000428973269162725 -179.999783969606 0.00104823109269559 0.000176911554531711 0.000251109618408563 -179.999787774684 0.999250935797921 -1.62468343038713E-07 
                               0.999802353375894 -1.35898483258602E-07 0.000251431205201355 -179.99978807982 0.00010201156641277 -179.999004955892 0.000430090573218547 0.000215584488234705 
                               0.000250784432670876 0.000209226088020518 0.999251132409562 -1.62273137724916E-07 0.000429857197719928 0.000215851586755693 0.00044046588005928 5.79020807562152E-05 
! Gamma         25               0                100              0                25               0                100              0                
! Port Impedance         50               0                50               0                50               0                50               0                
1.12201845430196E-08           0.00046721076936141 -9.33717892245808E-06 0.0004287281539351 -179.999757332009 0.999802550267578 -1.52261614131916E-07 0.000250456027779579 0.000235073046394084 
                               0.000428973269152061 -179.999757609911 0.00104823109243054 0.000198498029106965 0.000251109618402103 -179.999761879279 0.999250935797677 -1.82292479107264E-07 
                               0.999802353376036 -1.52480606083701E-07 0.000251431205194471 -179.999762221647 0.000102011566558806 -179.998883542151 0.000430090573207195 0.000241889774261127 
                               0.000250784432665402 0.000234755531879114 0.999251132409112 -1.82073455132661E-07 0.000429857197709897 0.000242189463729393 0.000440465879994942 6.49672032126637E-05 
! Gamma         25               0                100              0                25               0                100              0                
! Port Impedance         50               0                50               0                50               0                50               0                
1.25892541179417E-08           0.000467210768977607 -1.04764870046865E-05 0.000428728153921375 -179.999727722036 0.999802550267336 -1.70840340917765E-07 0.000250456027772604 0.000263756296162443 
                               0.000428973269139172 -179.999728033847 0.00104823109278833 0.000222718451676067 0.000251109618394567 -179.999732824157 0.999250935797606 -2.04535525663315E-07 
                               0.999802353375681 -1.7108605389734E-07 0.000251431205186197 -179.9997332083  0.00010201156672014 -179.998747313692 0.000430090573195069 0.000271404790627076 
                               0.000250784432657525 0.000263400039018175 0.999251132409296 -2.04289776747802E-07 0.000429857197696651 0.000271741047742016 0.000440465880091212 7.28944010326508E-05 
! Gamma         25               0                100              0                25               0                100              0                
! Port Impedance         50               0                50               0                50               0                50               0                
1.41253754462275E-08           0.000467210769205094 -1.1754811834135E-05 0.000428728153905306 -179.9996944991  0.999802550267563 -1.9168601530586E-07 0.000250456027763126 0.000295939431731743 
                               0.000428973269122777 -179.999694848957 0.00104823109251849 0.000249894212992127 0.000251109618385009 -179.999700223773 0.999250935797823 -2.29492634389349E-07 
                               0.999802353375909 -1.91961709765266E-07 0.000251431205176944 -179.999700654789 0.00010201156649908 -179.998594462842 0.000430090573178535 0.000304521183668923 
                               0.000250784432648068 0.000295539704641437 0.999251132409319 -2.29216899524019E-07 0.000429857197680622 0.000304898470356884 0.000440465880005868 8.17888630764877E-05 
! Gamma         25               0                100              0                25               0                100              0                
! Port Impedance         50               0                50               0                50               0                50               0                
1.58489319246111E-08           0.00046721076944657 -1.31891153258141E-05 0.000428728153885275 -179.999657222352 0.999802550267833 -2.15075246378241E-07 0.000250456027750987 0.000332049503758141 
                               0.000428973269102686 -179.999657614899 0.00104823109242992 0.000280385918563902 0.000251109618373301 -179.999663645541 0.999250935797945 -2.57494970887767E-07 
                               0.999802353376406 -2.15384580750622E-07 0.000251431205165309 -179.99966412915 0.000102011566379129 -179.99842296137 0.000430090573157817 0.000341678387801774 
                               0.000250784432635822 0.000331601002586272 0.999251132409485 -2.57185591302434E-07 0.000429857197659525 0.000342101710428518 0.000440465879975891 9.17686137131888E-05 
! Gamma         25               0                100              0                25               0                100              0                
! Port Impedance         50               0                50               0                50               0                50               0                
1.77827941003892E-08           0.000467210768764508 -1.47984314461105E-05 0.000428728153859611 -179.999615397154 0.999802550267151 -2.41318395779512E-07 0.000250456027734791 0.00037256567095826 
                               0.000428973269076559 -179.999615837598 0.00104823109225082 0.000314598174967624 0.000251109618357967 -179.99962260409 0.999250935797988 -2.88914109237534E-07 
                               0.999802353375496 -2.41665474638895E-07 0.000251431205150447 -179.999623146708 0.000102011566843771 -179.998230533559 0.000430090573131028 0.000383369456548722 