! Touchstone file exported from HFSS 2025.1.0
!        File:           E:/00_Asenjo/00_Project/Ketupa/simulation/Ansys_HFSS_from_si9000/HFSS_Projects/Surface_Microstrip_1B_50.058 ohm_20250814_010711.aedt
!        Generated:      01:08:43 AM Aug 14, 2025
!        Design:         Surface_Microstrip_1B_(1)
!        Project:        Surface_Microstrip_1B_50.058 ohm_20250814_010711
!        Setup:          Setup1
!        Solution:       Sweep
!
! Variables:
!        $Er1 = 4.2
!        H1 = 125um
!        T1 = 40um
!        W1 = 220um
!        W2 = 210um
!        subH = 0.125mm
!        subX = 5mm
!        subY = 5mm
!
# GHz S MA R 50.000000
! Terminal data exported
! Port[1] = Microstrip_1B_T1
! Port[2] = Microstrip_1B_T2
0                              2.70710906988825E-05 0                0.999888753584855 0                0.999888753583946 0                0.000181319866442209 0                
! Gamma         0.0189494789558029 0                0.019111571454312 0                
! Port Impedance         50               0                50               0                
1E-09                          2.70710902441389E-05 3.02258896174275E-05 0.999888753584401 -1.22109943658481E-08 0.999888753583491 -1.221099439071E-08 0.000181319865987467 1.36286977639326E-05 
! Gamma         0.0189494789558029 4.43773939683538E-08 0.019111571454312 4.46245390364982E-08 
! Port Impedance         50               0                50               0                
1.12201845430196E-09           2.70710911536346E-05 3.3914005128056E-05 0.999888753585765 -1.37009610043324E-08 0.99988875358531 -1.37009609794878E-08 0.000181319866896963 1.52916510084112E-05 
! Gamma         0.0189494789558029 4.97922549863216E-08 0.019111571454312 5.00695563136693E-08 
! Port Impedance         50               0                50               0                
1.25892541179417E-09           2.70710911536358E-05 3.80521374622453E-05 0.999888753584855 -1.53727311537067E-08 0.999888753583946 -1.5372731104019E-08 0.00018131986598747 1.7157513989263E-05 
! Gamma         0.0189494789558029 5.58678289759618E-08 0.019111571454312 5.61789661826484E-08 
! Port Impedance         50               0                50               0                
1.41253754462275E-09           2.707109069889E-05 4.26952041553706E-05 0.999888753583946 -1.72484879731275E-08 0.999888753582582 -1.72484879234493E-08 0.000181319865532724 1.92510481542047E-05 
! Gamma         0.0189494789558029 6.26847351128151E-08 0.019111571454312 6.30338368005374E-08 
! Port Impedance         50               0                50               0                
1.58489319246111E-09           2.70710906988919E-05 4.79048038794935E-05 0.999888753584855 -1.93531218482761E-08 0.999888753583946 -1.93531218979954E-08 0.000181319865987474 2.16000306309315E-05 
! Gamma         0.0189494789558029 7.03334295996088E-08 0.019111571454312 7.07251281356612E-08 
! Port Impedance         50               0                50               0                
1.77827941003892E-09           2.70710911536417E-05 5.37500813859839E-05 0.999888753585765 -2.17145597148656E-08 0.99988875358531 -2.17145597645772E-08 0.000181319866896972 2.42356338057902E-05 
! Gamma         0.0189494789558029 7.89154059651091E-08 0.019111571454312 7.93548989510829E-08 
! Port Impedance         50               0                50               0                
1.99526231496888E-09           2.70710906988975E-05 6.03085811887712E-05 0.99988875358531 -2.43641368024199E-08 0.999888753584855 -2.43641369018344E-08 0.000181319866442229 2.71928276698417E-05 
! Gamma         0.0189494789558029 8.85445418215836E-08 0.019111571454312 8.90376610623825E-08 
! Port Impedance         50               0                50               0                
2.23872113856834E-09           2.70710906989014E-05 6.76673378799606E-05 0.999888753584855 -2.73370112457583E-08 0.999888753583491 -2.73370111960939E-08 0.000181319865987487 3.05108545775436E-05 
! Gamma         0.0189494789558029 9.93486099515288E-08 0.019111571454312 9.99018988398766E-08 
! Port Impedance         50               0                50               0                
2.51188643150958E-09           2.70710902441589E-05 7.59240053332098E-05 0.99988875358531 -3.06726309827848E-08 0.999888753583946 -3.06726309331249E-08 0.000181319865532747 3.42337422107329E-05 
! Gamma         0.0189494789558029 1.11470973774863E-07 0.019111571454312 1.12091774118149E-07 
! Port Impedance         50               0                50               0                
2.81838293126445E-09           2.70710893346703E-05 8.51881388124569E-05 0.999888753583946 -3.44152580080911E-08 0.999888753583946 -3.44152579583894E-08 0.000181319865078008 3.84108907698241E-05 
! Gamma         0.0189494789558029 1.25072489694407E-07 0.019111571454312 1.25769039136011E-07 
! Port Impedance         50               0                50               0                
3.16227766016838E-09           2.70710906989201E-05 9.55826667903213E-05 0.99988875358531 -3.86145544053057E-08 0.999888753584401 -3.86145544053409E-08 0.000181319867351755 4.30977292953493E-05 
! Gamma         0.0189494789558029 1.40333641562616E-07 0.019111571454312 1.4111518289043E-07 
! Port Impedance         50               0                50               0                
3.54813389233575E-09           2.70710902441825E-05 0.000107245501684207 0.999888753584401 -4.33262429826082E-08 0.999888753583036 -4.33262430820707E-08 0.000181319865532779 4.8356445955446E-05 
! Gamma         0.0189494789558029 1.57456935592652E-07 0.019111571454312 1.58333839385259E-07 
! Port Impedance         50               0                50               0                
3.98107170553497E-09           2.70710906989422E-05 0.000120331447549379 0.999888753584401 -4.8612843801528E-08 0.999888753583946 -4.86128438015501E-08 0.00018131986644229 5.42568267300598E-05 
! Gamma         0.0189494789558029 1.76669587492792E-07 0.019111571454312 1.77653489730744E-07 
! Port Impedance         50               0                50               0                
4.46683592150963E-09           2.70710906989576E-05 0.000135014099750087 0.99988875358531 -5.45445081221104E-08 0.999888753583946 -5.45445078239746E-08 0.000181319865532817 6.08771600114716E-05 
! Gamma         0.0189494789558029 1.98226537480828E-07 0.019111571454312 1.99330493949039E-07 
! Port Impedance         50               0                50               0                
5.01187233627272E-09           2.7071089334735E-05 0.00015148831223995 0.999888753584401 -6.11999447431832E-08 0.999888753583946 -6.11999449420178E-08 0.000181319865532843 6.83052947813982E-05 
! Gamma         0.0189494789558029 2.22413833185868E-07 0.019111571454312 2.23652492715948E-07 
! Port Impedance         50               0                50               0                
5.62341325190349E-09           2.70710897895069E-05 0.00016997267809279 0.999888753584855 -6.86674675148109E-08 0.999888753583946 -6.86674675148734E-08 0.000181319865078129 7.66398027677258E-05 
! Gamma         0.0189494789558029 2.49552425326583E-07 0.019111571454312 2.50942224177929E-07 
! Port Impedance         50               0                50               0                
6.30957344480193E-09           2.70710916085271E-05 0.000190712473264165 0.99988875358622 -7.70461654161343E-08 0.99988875358531 -7.70461656150112E-08 0.00018131986689716 8.59912724227397E-05 
! Gamma         0.0189494789558029 2.80002426532239E-07 0.019111571454312 2.81561806491216E-07 
! Port Impedance         50               0                50               0                
7.07945784384138E-09           2.70710902443239E-05 0.000213982936975565 0.999888753583946 -8.64472193522852E-08 0.999888753583491 -8.64472195511314E-08 0.000181319865987719 9.6483794691081E-05 
! Gamma         0.0189494789558029 3.14167889818501E-07 0.019111571454312 3.15917542909743E-07 
! Port Impedance         50               0                50               0                
7.94328234724282E-09           2.70710906991201E-05 0.000240092772506483 0.99988875358531 -9.69953759077526E-08 0.999888753584401 -9.69953759078408E-08 0.000181319866442533 0.000108256595928056 
! Gamma         0.0189494789558029 3.52502170125465E-07 0.019111571454312 3.54465313182464E-07 
! Port Impedance         50               0                50               0                
8.91250938133745E-09           2.70710902444343E-05 0.000269388520616834 0.999888753584401 -1.08830602017327E-07 0.999888753583491 -1.08830602216233E-07 0.000181319865987869 0.000121465896458259 
! Gamma         0.0189494789558029 3.95513940062261E-07 0.019111571454312 3.9771662280065E-07 
! Port Impedance         50               0                50               0                
1E-08                          2.70710920635012E-05 0.000302258890547921 0.99988875358622 -1.22109943310347E-07 0.99988875358531 -1.22109943509265E-07 0.000181319867352217 0.000136286980724857 
! Gamma         0.0189494789558029 4.43773939683538E-07 0.019111571454312 4.46245390364982E-07 
! Port Impedance         50               0                50               0                
1.12201845430196E-08           2.7071089789862E-05 0.000339140101411308 0.999888753584855 -1.37009609993747E-07 0.999888753584401 -1.37009610192616E-07 0.000181319865988107 0.000152916508932216 
! Gamma         0.0189494789558029 4.97922549863216E-07 0.019111571454312 5.00695563136693E-07 
! Port Impedance         50               0                50               0                
1.25892541179417E-08           2.70710897899848E-05 0.000380521423165456 0.999888753583946 -1.53727310841383E-07 0.999888753583491 -1.53727310046226E-07 0.000181319865988275 0.000171575148662685 
! Gamma         0.0189494789558029 5.58678289759618E-07 0.019111571454312 5.61789661826484E-07 
! Port Impedance         50               0                50               0                
1.41253754462275E-08           2.70710902448867E-05 0.000426952046882171 0.999888753584401 -1.72484880029407E-07 0.999888753583946 -1.72484879631872E-07 0.000181319865533738 0.00019251048126725 
! Gamma         0.0189494789558029 6.26847351128151E-07 0.019111571454312 6.30338368005374E-07 
! Port Impedance         50               0                50               0                
1.58489319246111E-08           2.70710906998287E-05 0.000479048090185311 0.99988875358531 -1.93531217091025E-07 0.99988875358531 -1.93531217886252E-07 0.000181319866443497 0.000216000306862897 
! Gamma         0.0189494789558029 7.03334295996088E-07 0.019111571454312 7.07251281356612E-07 
! Port Impedance         50               0                50               0                
1.77827941003892E-08           2.70710907000737E-05 0.000537500808187188 0.99988875358531 -2.17145598242192E-07 0.99988875358531 -2.17145598639805E-07 0.000181319866443831 0.000242356331538214 
! Gamma         0.0189494789558029 7.89154059651091E-07 0.019111571454312 7.93548989510829E-07 
! Port Impedance         50               0                50               0                
1.99526231496888E-08           2.70710897908874E-05 0.000603085832127253 0.999888753583946 -2.43641368819759E-07 0.999888753583491 -2.43641369615097E-07 0.000181319865534756 0.000271928273126937 
! Gamma         0.0189494789558029 8.85445418215836E-07 0.019111571454312 8.90376610623825E-07 
! Port Impedance         50               0                50               0                
2.23872113856834E-08           2.70710907007704E-05 0.000676673415483764 0.999888753585765 -2.733701114633E-07 0.999888753584855 -2.73370111861163E-07 0.00018131986644478 0.000305108544459213 
! Gamma         0.0189494789558029 9.93486099515288E-07 0.019111571454312 9.99018988398766E-07 
! Port Impedance         50               0                50               0                
2.51188643150958E-08           2.70710897917645E-05 0.000759240095414263 0.999888753584401 -3.06726309728723E-07 0.999888753584401 -3.06726309728723E-07 0.000181319865535951 0.000342337424844097 
! Gamma         0.0189494789558029 1.11470973774863E-06 0.019111571454312 1.12091774118149E-06 
! Port Impedance         50               0                50               0                
2.81838293126445E-08           2.7071091156622E-05 0.000851881316135787 0.999888753585765 -3.44152580676706E-07 0.999888753584855 -3.44152580677019E-07 0.000181319866446283 0.000384108905350688 
! Gamma         0.0189494789558029 1.25072489694406E-06 0.019111571454312 1.25769039136011E-06 
! Port Impedance         50               0                50               0                
3.16227766016838E-08           2.70710897931547E-05 0.000955826648526463 0.999888753584401 -3.86145545246249E-07 0.999888753584401 -3.86145547631931E-07 0.000181319865537844 0.000430977275342575 
! Gamma         0.0189494789558029 1.40333641562616E-06 0.019111571454312 1.4111518289043E-06 
! Port Impedance         50               0                50               0                
3.54813389233575E-08           2.70710907036248E-05 0.00107245498401657 0.999888753584855 -4.33262431018726E-07 0.999888753583946 -4.33262427838211E-07 0.000181319865993919 0.000483564461619282 
! Gamma         0.0189494789558029 1.57456935592652E-06 0.019111571454312 1.58333839385259E-06 
! Port Impedance         50               0                50               0                
3.98107170553497E-08           2.70710893406106E-05 0.00120331438175514 0.999888753584855 -4.86128442388809E-07 0.999888753584855 -4.8612844477449E-07 0.000181319865540844 0.000542568233827474 
! Gamma         0.0189494789558029 1.76669587492792E-06 0.019111571454312 1.77653489730744E-06 
! Port Impedance         50               0                50               0                
4.46683592150963E-08           2.70710916158932E-05 0.00135014077565996 0.99988875358622 -5.45445084997936E-07 0.999888753585765 -5.4544508340773E-07 0.000181319867361938 0.00060877156986583 
! Gamma         0.0189494789558029 1.98226537480828E-06 0.019111571454312 1.99330493949039E-06 
! Port Impedance         50               0                50               0                
5.01187233627272E-08           2.70710893441025E-05 0.00151488323219595 0.999888753583946 -6.11999445245236E-07 0.999888753583036 -6.11999443655338E-07 0.000181319864636104 0.00068305298300141 
! Gamma         0.0189494789558029 2.22413833185868E-06 0.019111571454312 2.23652492715948E-06 
! Port Impedance         50               0                50               0                
5.62341325190349E-08           2.70710907107946E-05 0.00169972673801546 0.999888753583946 -6.86674672166632E-07 0.999888753583491 -6.8667467057649E-07 0.000181319865548935 0.000766398027902533 
! Gamma         0.0189494789558029 2.49552425326583E-06 0.019111571454312 2.50942224177929E-06 
! Port Impedance         50               0                50               0                
6.30957344480193E-08           2.70710898043842E-05 0.00190712480134543 0.999888753584855 -7.70461657740917E-07 0.999888753583946 -7.70461657741618E-07 0.000181319866007883 0.000859912717513568 
! Gamma         0.0189494789558029 2.80002426532239E-06 0.019111571454312 2.81561806491216E-06 
! Port Impedance         50               0                50               0                
7.07945784384138E-08           2.70710898082672E-05 0.0021398291109937 0.999888753583491 -8.64472201077903E-07 0.999888753583036 -8.64472202668751E-07 0.000181319864648928 0.0009648379102271 
! Gamma         0.0189494789558029 3.14167889818502E-06 0.019111571454312 3.15917542909743E-06 
! Port Impedance         50               0                50               0                
7.94328234724281E-08           2.70710920868923E-05 0.00240092772016829 0.999888753585765 -9.69953757486631E-07 0.999888753584855 -9.69953759077967E-07 0.000181319866019827 0.00108256596186809 
! Gamma         0.0189494789558029 3.52502170125465E-06 0.019111571454312 3.54465313182464E-06 
! Port Impedance         50               0                50               0                
8.91250938133746E-08           2.7071090274057E-05 0.0026938851748309 0.999888753583946 -1.08830602216183E-06 0.999888753583491 -1.08830602057187E-06 0.000181319864663965 0.00121465899327525 
! Gamma         0.0189494789558029 3.95513940062262E-06 0.019111571454312 3.9771662280065E-06 
! Port Impedance         50               0                50               0                
1E-07                          2.70710911912992E-05 0.00302258909236852 0.999888753584856 -1.22109943191229E-06 0.999888753584401 -1.22109943191285E-06 0.00018131986558401 0.00136286983162953 
! Gamma         0.0189494789558029 4.43773939683538E-06 0.019111571454312 4.46245390364982E-06 
! Port Impedance         50               0                50               0                
1.12201845430196E-07           2.70710921105475E-05 0.00339140049036581 0.99988875358531 -1.37009610510582E-06 0.999888753584401 -1.37009610510707E-06 0.000181319865142544 0.00152916506374335 
! Gamma         0.0189494789558029 4.97922549863216E-06 0.019111571454312 5.00695563136693E-06 
! Port Impedance         50               0                50               0                
1.25892541179417E-07           2.70710921228265E-05 0.00380521390651092 0.99988875358531 -1.53727310841174E-06 0.999888753584856 -1.53727310841243E-06 0.000181319865614012 0.0017157514421841 
! Gamma         0.0189494789558029 5.58678289759618E-06 0.019111571454312 5.61789661826484E-06 
! Port Impedance         50               0                50               0                
1.41253754462275E-07           2.70710916835375E-05 0.00426952039269774 0.999888753583491 -1.72484879790995E-06 0.999888753583037 -1.72484879791074E-06 0.000181319863816073 0.00192510478741503 
! Gamma         0.0189494789558029 6.26847351128151E-06 0.019111571454312 6.30338368005374E-06 
! Port Impedance         50               0                50               0                
1.58489319246111E-07           2.70710921577458E-05 0.00479048097248137 0.999888753584401 -1.93531217409292E-06 0.999888753583946 -1.93531216773198E-06 0.000181319864752068 0.00216000317699056 
! Gamma         0.0189494789558029 7.03334295996089E-06 0.019111571454312 7.07251281356613E-06 
! Port Impedance         50               0                50               0                
1.77827941003892E-07           2.70710930917403E-05 0.00537500743857431 0.999888753583946 -2.17145597924397E-06 0.999888753583492 -2.17145598560678E-06 0.000181319863875935 0.00242356329779734 
! Gamma         0.0189494789558029 7.8915405965109E-06 0.019111571454312 7.93548989510829E-06 
! Port Impedance         50               0                50               0                
1.99526231496888E-07           2.70710931225838E-05 0.00603085844186202 0.999888753583492 -2.43641366275143E-06 0.999888753583492 -2.43641368183688E-06 0.000181319863008441 0.00271928284910264 
! Gamma         0.0189494789558029 8.85445418215836E-06 0.019111571454312 8.90376610623825E-06 
! Port Impedance         50               0                50               0                
2.23872113856834E-07           2.70710936161608E-05 0.00676673446970351 0.999888753583947 -2.73370110827616E-06 0.999888753583037 -2.73370109555501E-06 0.000181319861697074 0.00305108559607429 
! Gamma         0.0189494789558029 9.93486099515288E-06 0.019111571454312 9.99018988398766E-06 
! Port Impedance         50               0                50               0                
2.51188643150958E-07           2.70710950292865E-05 0.00759239950721681 0.999888753583947 -3.06726309410772E-06 0.999888753583038 -3.06726308774869E-06 0.000181319861308893 0.00342337423378943 
! Gamma         0.0189494789558029 1.11470973774863E-05 0.019111571454312 1.12091774118149E-05 
! Port Impedance         50               0                50               0                
2.81838293126445E-07           2.7071097364564E-05 0.00851881188508594 0.999888753584402 -3.44152579722902E-06 0.999888753583948 -3.44152578450695E-06 0.0001813198604832 0.00384108910374247 
! Gamma         0.0189494789558029 1.25072489694407E-05 0.019111571454312 1.25769039136011E-05 
! Port Impedance         50               0                50               0                
3.16227766016838E-07           2.70710974420394E-05 0.00955826429844229 0.999888753582584 -3.86145546201224E-06 0.999888753582584 -3.86145546837405E-06 0.000181319858314964 0.00430977277125896 
! Gamma         0.0189494789558029 1.40333641562616E-05 0.019111571454312 1.4111518289043E-05 
! Port Impedance         50               0                50               0                
3.54813389233575E-07           2.70711007228065E-05 0.0107245485176977 0.999888753583494 -4.3326242704318E-06 0.999888753583039 -4.33262426407196E-06 0.000181319857083539 0.00483564467532649 
! Gamma         0.0189494789558029 1.57456935592652E-05 0.019111571454312 1.58333839385259E-05 
! Port Impedance         50               0                50               0                
3.98107170553497E-07           2.70711044835752E-05 0.0120331390538791 0.999888753584404 -4.86128440639529E-06 0.999888753583495 -4.86128441912334E-06 0.000181319855886503 0.00542568231068119 
! Gamma         0.0189494789558029 1.76669587492792E-05 0.019111571454312 1.77653489730744E-05 
! Port Impedance         50               0                50               0                
4.46683592150963E-07           2.70711069118954E-05 0.013501402013927 0.999888753582586 -5.45445082932329E-06 0.999888753582131 -5.4544508420494E-06 0.00018131985154953 0.00608771568834551 
! Gamma         0.0189494789558029 1.98226537480828E-05 0.019111571454312 1.99330493949039E-05 
! Port Impedance         50               0                50               0                
5.01187233627272E-07           2.70711107444834E-05 0.0151488218135448 0.999888753582587 -6.11999444927978E-06 0.999888753581678 -6.11999447473261E-06 0.000181319848176556 0.00683052932590888 
! Gamma         0.0189494789558029 2.22413833185868E-05 0.019111571454312 2.23652492715948E-05 
! Port Impedance         50               0                50               0                
5.62341325190349E-07           2.70711155369554E-05 0.0169972569737869 0.999888753581679 -6.86674672804372E-06 0.999888753581679 -6.86674672804372E-06 0.000181319843053209 0.00766398018248572 
! Gamma         0.0189494789558029 2.49552425326583E-05 0.019111571454312 2.50942224177929E-05 
! Port Impedance         50               0                50               0                
6.30957344480193E-07           2.70711231213471E-05 0.0190712295902862 0.999888753580772 -7.70461656471702E-06 0.999888753580772 -7.70461655199339E-06 0.000181319838470992 0.008599126951877 
! Gamma         0.0189494789558029 2.80002426532239E-05 0.019111571454312 2.81561806491216E-05 
! Port Impedance         50               0                50               0                
7.07945784384138E-07           2.70711307856011E-05 0.0213982700209647 0.999888753580319 -8.64472190901742E-06 0.999888753579864 -8.64472192174498E-06 0.000181319829904799 0.00964837945259812 
! Gamma         0.0189494789558029 3.14167889818501E-05 0.019111571454312 3.15917542909743E-05 
! Port Impedance         50               0                50               0                
7.94328234724281E-07           2.70711426431203E-05 0.0240092457479953 0.999888753580322 -9.6995374826728E-06 0.999888753579413 -9.69953750812889E-06 0.000181319821475513 0.0108256598511165 
! Gamma         0.0189494789558029 3.52502170125464E-05 0.019111571454312 3.54465313182464E-05 
! Port Impedance         50               0                50               0                
8.91250938133746E-07           2.70711559914522E-05 0.0269388024907267 0.999888753577597 -1.08830601612502E-05 0.999888753576688 -1.08830601103656E-05 0.000181319809580605 0.0121465896257702 
! Gamma         0.0189494789558029 3.95513940062262E-05 0.019111571454312 3.9771662280065E-05 
! Port Impedance         50               0                50               0                
1E-06                          2.70711717728671E-05 0.0302258256022986 0.999888753575328 -1.22109942301739E-05 0.999888753574874 -1.22109942301795E-05 0.00018131979471945 0.0136286979814098 
! Gamma         0.0189494789558029 4.43773939683538E-05 0.019111571454312 4.46245390364982E-05 
! Port Impedance         50               0                50               0                
1.12201845430196E-06           2.70711945760919E-05 0.0339139083404144 0.999888753575334 -1.37009609048733E-05 0.999888753573515 -1.37009608794509E-05 0.000181319777402977 0.0152916502881019 
! Gamma         0.0189494789558029 4.97922549863216E-05 0.019111571454312 5.00695563136693E-05 
! Port Impedance         50               0                50               0                
1.25892541179417E-06           2.70712217245873E-05 0.0380520047777575 0.999888753572158 -1.53727309061889E-05 0.999888753571704 -1.53727308807486E-05 0.000181319754518684 0.0171575135759493 
! Gamma         0.0189494789558029 5.58678289759618E-05 0.019111571454312 5.61789661826484E-05 
! Port Impedance         50               0                50               0                
1.41253754462275E-06           2.70712541932343E-05 0.0426950119268663 0.999888753567165 -1.72484877376324E-05 0.999888753566711 -1.72484876612984E-05 0.000181319724791373 0.0192510469255664 
! Gamma         0.0189494789558029 6.26847351128151E-05 0.019111571454312 6.30338368005374E-05 
! Port Impedance         50               0                50               0                
1.58489319246111E-06           2.70712984308197E-05 0.0479045416394327 0.999888753564449 -1.93531212705413E-05 0.999888753563539 -1.93531212196643E-05 0.000181319689697386 0.0216000309230456 
! Gamma         0.0189494789558029 7.03334295996088E-05 0.019111571454312 7.07251281356612E-05 
! Port Impedance         50               0                50               0                
1.77827941003892E-06           2.70713518124825E-05 0.0537496895139751 0.999888753558552 -2.17145593731118E-05 0.999888753557642 -2.1714559322237E-05 0.000181319643011378 0.0242356309390523 
! Gamma         0.0189494789558029 7.89154059651091E-05 0.019111571454312 7.93548989510829E-05 
! Port Impedance         50               0                50               0                
1.99526231496888E-06           2.70714190161771E-05 0.0603080395529973 0.999888753552659 -2.436413608115E-05 0.999888753551749 -2.43641360811722E-05 0.000181319585820514 0.0271928247634115 
! Gamma         0.0189494789558029 8.85445418215836E-05 0.019111571454312 8.90376610623825E-05 
! Port Impedance         50               0                50               0                
2.23872113856834E-06           2.70715042988634E-05 0.0676665724700111 0.999888753544497 -2.73370101041214E-05 0.999888753544042 -2.73370102059229E-05 0.000181319514710475 0.0305108493302695 
! Gamma         0.0189494789558029 9.93486099515288E-05 0.019111571454312 9.99018988398766E-05 
! Port Impedance         50               0                50               0                
2.51188643150958E-06           2.70716119600435E-05 0.0759229188251023 0.999888753534067 -3.06726295939035E-05 0.999888753534067 -3.0672629644798E-05 0.000181319423141631 0.0342337354468559 
! Gamma         0.0189494789558029 0.000111470973774863 0.019111571454312 0.000112091774118149 
! Port Impedance         50               0                50               0                
2.81838293126445E-06           2.70717454432567E-05 0.0851866077788636 0.999888753518643 -3.44152559006033E-05 0.999888753517733 -3.44152558497401E-05 0.000181319306011495 0.0384108826636538 
! Gamma         0.0189494789558029 0.000125072489694407 0.019111571454312 0.000125769039136011 
! Port Impedance         50               0                50               0                
3.16227766016838E-06           2.70719155353873E-05 0.0955805033477815 0.999888753502773 -3.86145515568116E-05 0.999888753502318 -3.86145515568292E-05 0.000181319161947339 0.0430977174934339 
! Gamma         0.0189494789558029 0.000140333641562616 0.019111571454312 0.00014111518289043 
! Port Impedance         50               0                50               0                
3.54813389233575E-06           2.70721285606829E-05 0.107242454768755 0.999888753480095 -4.33262385990687E-05 0.999888753480095 -4.33262387008577E-05 0.000181318979687536 0.0483564287161877 
! Gamma         0.0189494789558029 0.000157456935592652 0.019111571454312 0.000158333839385259 
! Port Impedance         50               0                50               0                
3.98107170553497E-06           2.70723986809197E-05 0.120327125116497 0.999888753454703 -4.86128380647092E-05 0.999888753454703 -4.86128379629201E-05 0.00018131875129917 0.0542568018595235 
! Gamma         0.0189494789558029 0.000176669587492792 0.019111571454312 0.000177653489730744 
! Port Impedance         50               0                50               0                
4.46683592150963E-06           2.70727365543188E-05 0.135008001633036 0.99988875342069 -5.45444997263431E-05 0.999888753420235 -5.45444996245789E-05 0.000181318461756465 0.0608771269875798 
! Gamma         0.0189494789558029 0.000198226537480828 0.019111571454312 0.000199330493949039 
! Port Impedance         50               0                50               0                
5.01187233627272E-06           2.70731634675399E-05 0.151479688727712 0.99988875337897 -6.11999327995285E-05 0.999888753378061 -6.11999329013733E-05 0.000181318098537916 0.0683052487781933 
! Gamma         0.0189494789558029 0.000222413833185868 0.019111571454312 0.000223652492715948 