! Touchstone file exported from HFSS 2025.1.0
!        File:           E:/00_Asenjo/00_Project/Ketupa/simulation/Ansys_HFSS_via/HFSS_Projects/Via_Surface_Microstrip_1B_50.058 ohm_20250822_092539.aedt
!        Generated:      09:42:27 AM Aug 22, 2025
!        Design:         Via_Surface_Microstrip_1B_(1)
!        Project:        Via_Surface_Microstrip_1B_50.058 ohm_20250822_092539
!        Setup:          Setup1
!        Solution:       Sweep
!
! Variables:
!        $Er1 = 4.2
!        H1 = 125um
!        H_core = 1mm
!        R_anti_pad = 400um
!        R_drill = 125um
!        R_filled = 100um
!        R_pad = 250um
!        T1 = 40um
!        W1 = 220um
!        W2 = 210um
!        subX = 5mm
!        subY = 5mm
!        subZ = 5mm
!
# GHz S MA R 50.000000
! Terminal data exported
! Port[1] = Trace_out_L1_T1
! Port[2] = Trace_out_L1_T2
0                              0.000157549779487454 0                0.999863040662603 0                0.999863040663968 0                5.01076447108062E-05 0                
! Gamma         0.0213385173084106 0                0.0212370476152433 0                
! Port Impedance         50               0                50               0                
1E-09                          0.000157549778577988 3.45678225387626E-05 0.999863040661239 -1.69424957832074E-08 0.999863040662603 -1.69424958080358E-08 5.01076438013703E-05 8.77499662722614E-05 
! Gamma         0.0213385173084106 4.49211469929305E-08 0.0212370476152433 4.47805256368496E-08 
! Port Impedance         50               0                50               0                
1.12201845430196E-09           0.0001575497776685 3.87857355767092E-05 0.999863040661694 -1.90097929055771E-08 0.999863040662603 -1.90097929552627E-08 5.01076428918908E-05 9.84570837269751E-05 
! Gamma         0.0213385173084106 5.04023559144792E-08 0.0212370476152433 5.02445761578874E-08 
! Port Impedance         50               0                50               0                
1.25892541179417E-09           0.000157549779487499 4.35183100922026E-05 0.999863040662149 -2.13293385117326E-08 0.999863040662603 -2.13293385117229E-08 5.01076438014046E-05 0.000110470664257113 
! Gamma         0.0213385173084106 5.65523734763414E-08 0.0212370476152433 5.63753416777301E-08 
! Port Impedance         50               0                50               0                
1.41253754462275E-09           0.000157549779032764 4.88283472628135E-05 0.999863040661694 -2.39319113424195E-08 0.999863040662603 -2.39319113423978E-08 5.01076433466814E-05 0.000123950124456708 
! Gamma         0.0213385173084106 6.34528066750319E-08 0.0212370476152433 6.32541737299918E-08 
! Port Impedance         50               0                50               0                
1.58489319246111E-09           0.000157549779032778 5.4786306523386E-05 0.999863040662149 -2.68520462666341E-08 0.999863040663058 -2.68520463163126E-08 5.01076442562065E-05 0.000139074324909487 
! Gamma         0.0213385173084106 7.11952200666406E-08 0.0212370476152433 7.09723502366733E-08 
! Port Impedance         50               0                50               0                
1.77827941003892E-09           0.000157549779032797 6.1471246810397E-05 0.999863040662149 -3.01284915242711E-08 0.999863040663058 -3.01284915242437E-08 5.01076438014973E-05 0.000156043957139793 
! Gamma         0.0213385173084106 7.98823507728602E-08 0.0212370476152433 7.96322867107298E-08 
! Port Impedance         50               0                50               0                
1.99526231496888E-09           0.000157549778578073 6.89718736606572E-05 0.999863040662603 -3.38047233505858E-08 0.999863040663058 -3.38047233505705E-08 5.01076433467981E-05 0.000175084204314417 
! Gamma         0.0213385173084106 8.96294717401719E-08 0.0212370476152433 8.93488952477038E-08 
! Port Impedance         50               0                50               0                
2.23872113856834E-09           0.00015754977903285 7.73877161628387E-05 0.999863040662149 -3.79295232763703E-08 0.999863040662603 -3.792952322665E-08 5.01076433468587E-05 0.000196447711830721 
! Gamma         0.0213385173084106 1.00565921341809E-07 0.0212370476152433 1.00251109339417E-07 
! Port Impedance         50               0                50               0                
2.51188643150958E-09           0.000157549779487635 8.68304440470898E-05 0.999863040663058 -4.25576253101768E-08 0.999863040663058 -4.25576252107708E-08 5.01076442564296E-05 0.000220417951976694 
! Gamma         0.0213385173084106 1.1283681961939E-07 0.0212370476152433 1.12483594743069E-07 
! Port Impedance         50               0                50               0                
2.81838293126445E-09           0.000157549777668692 9.74253616746897E-05 0.999863040660784 -4.77504409560149E-08 0.999863040661694 -4.77504411547833E-08 5.01076428922836E-05 0.000247313009425938 
! Gamma         0.0213385173084106 1.26604993937697E-07 0.0212370476152433 1.26208669107947E-07 
! Port Impedance         50               0                50               0                
3.16227766016838E-09           0.00015754977948774 0.000109313054223907 0.999863040663058 -5.35768758820817E-08 0.999863040663513 -5.35768759814633E-08 5.01076442566465E-05 0.000277489757355404 
! Gamma         0.0213385173084106 1.42053139604884E-07 0.0212370476152433 1.41608455832007E-07 
! Port Impedance         50               0                50               0                
3.54813389233575E-09           0.000157549779033067 0.000122651263895813 0.999863040662603 -6.01142435621037E-08 0.999863040663513 -6.0114243661455E-08 5.01076438020513E-05 0.000311348629446229 
! Gamma         0.0213385173084106 1.59386244128213E-07 0.0212370476152433 1.58887300728716E-07 
! Port Impedance         50               0                50               0                
3.98107170553497E-09           0.000157549778578413 0.00013761698234157 0.999863040662149 -6.74492904973895E-08 0.999863040663513 -6.74492904972974E-08 5.01076442569902E-05 0.000349338910347636 
! Gamma         0.0213385173084106 1.78834307273733E-07 0.0212370476152433 1.78274483571845E-07 
! Port Impedance         50               0                50               0                
4.46683592150963E-09           0.000157549778578531 0.000154408792831808 0.999863040662149 -7.56793487299735E-08 0.999863040663513 -7.56793490280881E-08 5.0107643802484E-05 0.000391964700313131 
! Gamma         0.0213385173084106 2.00655393023436E-07 0.0212370476152433 2.00027260498763E-07 
! Port Impedance         50               0                50               0                
5.01187233627272E-09           0.000157549778578679 0.000173249515918826 0.999863040661694 -8.49136257342054E-08 0.999863040662603 -8.49136255353163E-08 5.01076433480403E-05 0.000439791642336664 
! Gamma         0.0213385173084106 2.25139053927509E-07 0.0212370476152433 2.24434277643078E-07 
! Port Impedance         50               0                50               0                
5.62341325190349E-09           0.000157549778578866 0.000194389152535399 0.999863040663058 -9.52746554450107E-08 0.999863040663513 -9.52746554449674E-08 5.01076438031698E-05 0.000493454331190813 
! Gamma         0.0213385173084106 2.5261017329075E-07 0.0212370476152433 2.51819401293464E-07 
! Port Impedance         50               0                50               0                
6.30957344480193E-09           0.000157549779033848 0.000218108217199606 0.999863040662149 -1.06899921458468E-07 0.999863040663058 -1.06899921657183E-07 5.01076442583983E-05 0.000553664863824516 
! Gamma         0.0213385173084106 2.83433276176639E-07 0.0212370476152433 2.82546015402538E-07 
! Port Impedance         50               0                50               0                
7.07945784384138E-09           0.000157549779488891 0.000244721441654191 0.999863040662603 -1.19943684907082E-07 0.999863040663513 -1.19943684708161E-07 5.01076442590041E-05 0.00062122219450429 
! Gamma         0.0213385173084106 3.18017366433454E-07 0.0212370476152433 3.17021843471135E-07 
! Port Impedance         50               0                50               0                
7.94328234724282E-09           0.000157549779034515 0.000274581971974045 0.999863040662149 -1.3457902824741E-07 0.999863040663058 -1.34579028644912E-07 5.01076438050194E-05 0.000697022750796318 
! Gamma         0.0213385173084106 3.56821353926845E-07 0.0212370476152433 3.55704358791442E-07 
! Port Impedance         50               0                50               0                
8.91250938133745E-09           0.000157549778580237 0.000308086045701026 0.999863040662149 -1.51000152530519E-07 0.999863040663513 -1.51000152927937E-07 5.01076438059794E-05 0.000782072396310389 
! Gamma         0.0213385173084106 4.00360143994932E-07 0.0212370476152433 3.99106854839644E-07 
! Port Impedance         50               0                50               0                
1E-08                          0.000157549778126079 0.000345678232058998 0.999863040661694 -1.69424957185858E-07 0.999863040662149 -1.69424957185781E-07 5.0107642442946E-05 0.000877499712332189 
! Gamma         0.0213385173084106 4.49211469929305E-07 0.0212370476152433 4.47805256368496E-07 
! Port Impedance         50               0                50               0                
1.12201845430196E-08           0.000157549778581569 0.000387857345951869 0.999863040661694 -1.900979295528E-07 0.999863040663058 -1.90097929552541E-07 5.01076438087096E-05 0.000984570803434433 
! Gamma         0.0213385173084106 5.04023559144792E-07 0.0212370476152433 5.02445761578874E-07 
! Port Impedance         50               0                50               0                
1.25892541179417E-08           0.000157549779037251 0.000435183100908116 0.999863040662149 -2.13293385117326E-07 0.999863040662149 -2.13293383924455E-07 5.01076429011305E-05 0.00110470665256905 
! Gamma         0.0213385173084106 5.65523734763414E-07 0.0212370476152433 5.63753416777302E-07 
! Port Impedance         50               0                50               0                
1.41253754462275E-08           0.000157549779038427 0.000488283477032474 0.999863040662149 -2.39319113324681E-07 0.999863040663058 -2.39319113722087E-07 5.01076438130368E-05 0.00123950124106097 
! Gamma         0.0213385173084106 6.34528066750319E-07 0.0212370476152433 6.32541737299918E-07 
! Port Impedance         50               0                50               0                
1.58489319246111E-08           0.000157549779039909 0.000547863063955603 0.999863040661694 -2.68520462368245E-07 0.999863040662603 -2.68520462765625E-07 5.01076438160727E-05 0.00139074324359385 
! Gamma         0.0213385173084106 7.11952200666406E-07 0.0212370476152433 7.09723502366733E-07 
! Port Impedance         50               0                50               0                
1.77827941003892E-08           0.000157549779496521 0.000614712472614961 0.999863040663058 -3.01284914248378E-07 0.999863040664422 -3.0128491464559E-07 5.01076438198948E-05 0.00156043960672035 
! Gamma         0.0213385173084106 7.98823507728602E-07 0.0212370476152433 7.96322867107298E-07 
! Port Impedance         50               0                50               0                
1.99526231496888E-08           0.000157549778589374 0.000689718741620494 0.999863040662603 -3.38047233605264E-07 0.999863040663058 -3.38047233605111E-07 5.01076438247065E-05 0.00175084200687928 
! Gamma         0.0213385173084106 8.96294717401719E-07 0.0212370476152433 8.93488952477038E-07 
! Port Impedance         50               0                50               0                
2.23872113856834E-08           0.000157549779047077 0.000773877157165757 0.999863040661694 -3.79295233260905E-07 0.999863040662603 -3.7929523326056E-07 5.0107643830764E-05 0.00196447707591376 
! Gamma         0.0213385173084106 1.00565921341809E-06 0.0212370476152433 1.00251109339417E-06 
! Port Impedance         50               0                50               0                
2.51188643150958E-08           0.000157549779050798 0.000868304450481696 0.999863040662149 -4.2557625151166E-07 0.999863040663058 -4.2557625230652E-07 5.010764383839E-05 0.00220417952679283 
! Gamma         0.0213385173084106 1.1283681961939E-06 0.0212370476152433 1.12483594743069E-06 
! Port Impedance         50               0                50               0                
2.81838293126445E-08           0.000157549779964977 0.000974253603855371 0.999863040662604 -4.7750440955928E-07 0.999863040663513 -4.77504411149341E-07 5.01076447574853E-05 0.00247313001882875 
! Gamma         0.0213385173084106 1.26604993937697E-06 0.0212370476152433 1.26208669107947E-06 
! Port Impedance         50               0                50               0                
3.16227766016838E-08           0.00015754977906138 0.00109313052002842 0.999863040661694 -5.35768760014419E-07 0.999863040662604 -5.35768758423437E-07 5.0107643860077E-05 0.00277489760055664 
! Gamma         0.0213385173084106 1.42053139604884E-06 0.0212370476152433 1.41608455832007E-06 
! Port Impedance         50               0                50               0                
3.54813389233575E-08           0.000157549779068805 0.00122651263751093 0.999863040662149 -6.01142435422499E-07 0.999863040663058 -6.01142434626704E-07 5.01076438752929E-05 0.00311348632713271 
! Gamma         0.0213385173084106 1.59386244128213E-06 0.0212370476152433 1.58887300728716E-06 
! Port Impedance         50               0                50               0                
3.98107170553497E-08           0.000157549779532899 0.00137616981647116 0.999863040662604 -6.74492906961707E-07 0.999863040663513 -6.74492908551589E-07 5.01076443491959E-05 0.00349338904365065 
! Gamma         0.0213385173084106 1.78834307273733E-06 0.0212370476152433 1.78274483571845E-06 
! Port Impedance         50               0                50               0                
4.46683592150963E-08           0.000157549779089918 0.00154408791970602 0.999863040661694 -7.56793486902455E-07 0.999863040663058 -7.56793490082413E-07 5.01076443733115E-05 0.00391964694960391 
! Gamma         0.0213385173084106 2.00655393023436E-06 0.0212370476152433 2.00027260498763E-06 
! Port Impedance         50               0                50               0                
5.01187233627272E-08           0.000157549779104732 0.00173249511833656 0.999863040663058 -8.4913626091951E-07 0.999863040663513 -8.49136259328628E-07 5.01076448584185E-05 0.00439791618399685 
! Gamma         0.0213385173084106 2.25139053927509E-06 0.0212370476152433 2.24434277643078E-06 
! Port Impedance         50               0                50               0                
5.62341325190349E-08           0.000157549778668634 0.00194389152713906 0.999863040662149 -9.52746551269983E-07 0.999863040663058 -9.52746552859611E-07 5.01076444418918E-05 0.00493454323124381 
! Gamma         0.0213385173084106 2.5261017329075E-06 0.0212370476152433 2.51819401293464E-06 
! Port Impedance         50               0                50               0                
6.30957344480193E-08           0.000157549777782617 0.00218108216712823 0.999863040661239 -1.0689992153809E-06 0.999863040662604 -1.06899921856043E-06 5.01076435805139E-05 0.00553664857092686 
! Gamma         0.0213385173084106 2.83433276176639E-06 0.0212370476152433 2.82546015402538E-06 
! Port Impedance         50               0                50               0                
7.07945784384138E-08           0.000157549778721669 0.00244721445695375 0.999863040661694 -1.19943684430042E-06 0.999863040662604 -1.19943684429933E-06 5.01076445505842E-05 0.00621222188127179 
! Gamma         0.0213385173084106 3.18017366433454E-06 0.0212370476152433 3.17021843471135E-06 
! Port Impedance         50               0                50               0                
7.94328234724281E-08           0.000157549778758879 0.00274581973315521 0.999863040662604 -1.34579028326874E-06 0.999863040663058 -1.34579027690615E-06 5.01076446268443E-05 0.00697022754554714 
! Gamma         0.0213385173084106 3.56821353926845E-06 0.0212370476152433 3.55704358791442E-06 
! Port Impedance         50               0                50               0                
8.91250938133746E-08           0.000157549778350976 0.00308086040744725 0.999863040661694 -1.51000152689637E-06 0.999863040662604 -1.510001526895E-06 5.01076442681027E-05 0.00782072385154446 
! Gamma         0.0213385173084106 4.00360143994932E-06 0.0212370476152433 3.99106854839644E-06 
! Port Impedance         50               0                50               0                
1E-07                          0.000157549777500456 0.00345678231115832 0.999863040660785 -1.69424957742686E-06 0.999863040661694 -1.6942495806063E-06 5.01076439342194E-05 0.00877499662636029 
! Gamma         0.0213385173084106 4.49211469929305E-06 0.0212370476152433 4.47805256368496E-06 
! Port Impedance         50               0                50               0                
1.12201845430196E-07           0.0001575497775747 0.00387857353266063 0.999863040660785 -1.900979289963E-06 0.999863040662149 -1.90097929632239E-06 5.0107644995873E-05 0.00984570792839139 
! Gamma         0.0213385173084106 5.04023559144792E-06 0.0212370476152433 5.02445761578874E-06 
! Port Impedance         50               0                50               0                
1.25892541179417E-07           0.000157549778577662 0.00435183104105903 0.999863040662149 -2.13293383924455E-06 0.999863040663059 -2.13293384560459E-06 5.01076460969243E-05 0.0110470657619366 
! Gamma         0.0213385173084106 5.65523734763414E-06 0.0212370476152433 5.63753416777301E-06 
! Port Impedance         50               0                50               0                
1.41253754462275E-07           0.000157549778240584 0.00488283467977741 0.99986304066215 -2.39319114199453E-06 0.99986304066215 -2.39319114199453E-06 5.01076454285852E-05 0.0123950117258435 
! Gamma         0.0213385173084106 6.34528066750319E-06 0.0212370476152433 6.32541737299918E-06 
! Port Impedance         50               0                50               0                
1.58489319246111E-07           0.00015754977838872 0.00547863062504354 0.999863040661695 -2.68520461493473E-06 0.99986304066215 -2.6852046149335E-06 5.01076461869295E-05 0.0139074319289741 
! Gamma         0.0213385173084106 7.11952200666406E-06 0.0212370476152433 7.09723502366733E-06 
! Port Impedance         50               0                50               0                
1.77827941003892E-07           0.000157549778575212 0.00614712468292701 0.99986304066215 -3.01284914010077E-06 0.999863040663514 -3.01284914009666E-06 5.01076474786299E-05 0.0156043949124939 
! Gamma         0.0213385173084106 7.98823507728602E-06 0.0212370476152433 7.96322867107298E-06 
! Port Impedance         50               0                50               0                
1.99526231496888E-07           0.000157549776991003 0.00689718737144995 0.999863040661241 -3.3804723201523E-06 0.99986304066215 -3.38047232014922E-06 5.01076475050513E-05 0.0175084192430055 
! Gamma         0.0213385173084106 8.96294717401718E-06 0.0212370476152433 8.93488952477038E-06 
! Port Impedance         50               0                50               0                
2.23872113856834E-07           0.000157549778650816 0.00773877141254016 0.999863040662606 -3.7929523310151E-06 0.999863040663515 -3.79295233737363E-06 5.01076503845432E-05 0.0196447680629721 
! Gamma         0.0213385173084106 1.00565921341809E-05 0.0212370476152433 1.00251109339417E-05 
! Port Impedance         50               0                50               0                
2.51188643150958E-07           0.000157549777658675 0.00868304438228795 0.999863040661242 -4.25576250557749E-06 0.999863040662151 -4.2557625119356E-06 5.01076516018913E-05 0.0220417919150369 
! Gamma         0.0213385173084106 1.1283681961939E-05 0.0212370476152433 1.12483594743069E-05 
! Port Impedance         50               0                50               0                
2.81838293126445E-07           0.000157549779491365 0.00974253580141161 0.999863040663516 -4.77504407014052E-06 0.999863040664426 -4.7750440637742E-06 5.01076543809379E-05 0.0247312958496849 
! Gamma         0.0213385173084106 1.26604993937697E-05 0.0212370476152433 1.26208669107947E-05 
! Port Impedance         50               0                50               0                
3.16227766016838E-07           0.000157549777807369 0.010931304908817 0.999863040662608 -5.35768757151039E-06 0.999863040663517 -5.35768759695344E-06 5.010765695382E-05 0.0277489681780229 
! Gamma         0.0213385173084106 1.42053139604884E-05 0.0212370476152433 1.41608455832007E-05 
! Port Impedance         50               0                50               0                
3.54813389233575E-07           0.000157549778095061 0.012265125685678 0.999863040662609 -6.01142432400282E-06 0.999863040663064 -6.01142431127613E-06 5.01076598396504E-05 0.0311348533453156 
! Gamma         0.0213385173084106 1.59386244128213E-05 0.0212370476152433 1.58887300728716E-05 
! Port Impedance         50               0                50               0                
3.98107170553497E-07           0.000157549778120242 0.0137616969655912 0.999863040663065 -6.74492904098506E-06 0.999863040663975 -6.74492902825496E-06 5.01076644836995E-05 0.0349338763203845 
! Gamma         0.0213385173084106 1.78834307273733E-05 0.0212370476152433 1.78274483571845E-05 
! Port Impedance         50               0                50               0                
4.46683592150963E-07           0.000157549777023193 0.0154408778081373 0.999863040662157 -7.56793484039215E-06 0.999863040662157 -7.56793484039215E-06 5.01076687142423E-05 0.0391964502450408 
! Gamma         0.0213385173084106 2.00655393023436E-05 0.0212370476152433 2.00027260498763E-05 
! Port Impedance         50               0                50               0                
5.01187233627272E-07           0.000157549775776071 0.0173249498727596 0.999863040661705 -8.49136248196701E-06 0.999863040663069 -8.49136248195542E-06 5.01076753881868E-05 0.0439791355111564 
! Gamma         0.0213385173084106 2.25139053927509E-05 0.0212370476152433 2.24434277643078E-05 
! Port Impedance         50               0                50               0                
5.62341325190349E-07           0.000157549776731499 0.0194389124275107 0.999863040663981 -9.52746542043369E-06 0.999863040664891 -9.52746540770106E-06 5.0107685121954E-05 0.0493453916890632 
! Gamma         0.0213385173084106 2.5261017329075E-05 0.0212370476152433 2.51819401293464E-05 
! Port Impedance         50               0                50               0                
6.30957344480193E-07           0.000157549774531825 0.0218108181207881 0.99986304066353 -1.068999201064E-05 0.999863040664895 -1.06899919851775E-05 5.01076944811047E-05 0.0553664295551531 
! Gamma         0.0213385173084106 2.83433276176638E-05 0.0212370476152433 2.82546015402538E-05 
! Port Impedance         50               0                50               0                
7.07945784384138E-07           0.000157549773394803 0.0244721392899935 0.99986304066308 -1.19943682489473E-05 0.999863040664444 -1.19943682489309E-05 5.0107707359854E-05 0.0621221392827187 
! Gamma         0.0213385173084106 3.18017366433454E-05 0.0212370476152433 3.17021843471135E-05 
! Port Impedance         50               0                50               0                
7.94328234724281E-07           0.000157549773023087 0.0274581904084283 0.999863040663995 -1.3457902438226E-05 0.99986304066445 -1.34579024382199E-05 5.01077245355329E-05 0.0697021625309039 
! Gamma         0.0213385173084106 3.56821353926844E-05 0.0212370476152433 3.55704358791442E-05 
! Port Impedance         50               0                50               0                
8.91250938133746E-07           0.000157549771341096 0.0308085940353294 0.999863040664002 -1.51000147536086E-05 0.999863040664912 -1.51000147790428E-05 5.01077455047545E-05 0.0782070792867274 
! Gamma         0.0213385173084106 4.00360143994932E-05 0.0212370476152433 3.99106854839645E-05 
! Port Impedance         50               0                50               0                
1E-06                          0.000157549768598295 0.0345678080838126 0.999863040664466 -1.69424951825422E-05 0.999863040665376 -1.69424951825268E-05 5.01077712335235E-05 0.087749739844753 
! Gamma         0.0213385173084106 4.49211469929305E-05 0.0212370476152433 4.47805256368496E-05 
! Port Impedance         50               0                50               0                
1.12201845430196E-06           0.000157549765563489 0.0387857146896128 0.999863040664932 -1.90097920534081E-05 0.999863040665842 -1.90097920788387E-05 5.01078037297137E-05 0.098456761658383 
! Gamma         0.0213385173084106 5.04023559144792E-05 0.0212370476152433 5.02445761578874E-05 
! Port Impedance         50               0                50               0                
1.25892541179417E-06           0.000157549762177302 0.0435182815341338 0.999863040665401 -2.13293372090482E-05 0.999863040664946 -2.13293371072662E-05 5.01078447131056E-05 0.110470213614788 
! Gamma         0.0213385173084106 5.65523734763414E-05 0.0212370476152433 5.63753416777302E-05 
! Port Impedance         50               0                50               0                
1.41253754462275E-06           0.00015754976030172 0.0488283058017021 0.999863040668148 -2.39319097084296E-05 0.999863040669057 -2.3931909657512E-05 5.01078988417396E-05 0.123949481126571 
! Gamma         0.0213385173084106 6.34528066750319E-05 0.0212370476152433 6.32541737299918E-05 
! Port Impedance         50               0                50               0                
1.58489319246111E-06           0.000157549754196901 0.0547862483953952 0.999863040668625 -2.68520438334012E-05 0.999863040670444 -2.6852043935144E-05 5.01079646713276E-05 0.139073415913869 
! Gamma         0.0213385173084106 7.11952200666406E-05 0.0212370476152433 7.09723502366733E-05 
! Port Impedance         50               0                50               0                
1.77827941003892E-06           0.000157549749199181 0.0614711634559309 0.999863040672291 -3.01284881179215E-05 0.999863040673201 -3.01284880161024E-05 5.01080492755191E-05 0.156042670998404 
! Gamma         0.0213385173084106 7.98823507728602E-05 0.0212370476152433 7.96322867107298E-05 
! Port Impedance         50               0                50               0                
1.99526231496888E-06           0.000157549739935226 0.0689717571202711 0.999863040673691 -3.38047186077539E-05 0.999863040674601 -3.3804718658619E-05 5.01081528705906E-05 0.175082389412666 
! Gamma         0.0213385173084106 8.96294717401718E-05 0.0212370476152433 8.93488952477038E-05 
! Port Impedance         50               0                50               0                
2.23872113856834E-06           0.000157549731293262 0.0773875507303519 0.999863040678284 -3.79295166803751E-05 0.999863040678739 -3.79295166803578E-05 5.01082852946684E-05 0.196445144962343 
! Gamma         0.0213385173084106 0.000100565921341809 0.0212370476152433 0.000100251109339417 
! Port Impedance         50               0                50               0                
2.51188643150958E-06           0.000157549718480795 0.0868302125029558 0.999863040680614 -4.25576155247071E-05 0.999863040681524 -4.25576157282518E-05 5.01084515922643E-05 0.220414328757581 
! Gamma         0.0213385173084106 0.00011283681961939 0.0212370476152433 0.000112483594743069 
! Port Impedance         50               0                50               0                
2.81838293126445E-06           0.000157549703479307 0.0974250313517449 0.999863040687052 -4.77504274419189E-05 0.999863040687052 -4.77504272383356E-05 5.01086603715094E-05 0.247307902337392 
! Gamma         0.0213385173084106 0.000126604993937697 0.0212370476152433 0.000126208669107947 
! Port Impedance         50               0                50               0                
3.16227766016838E-06           0.000157549683326371 0.109312589362002 0.999863040692599 -5.35768567039063E-05 0.999863040693509 -5.35768568056492E-05 5.01089235653516E-05 0.277482542606363 
! Gamma         0.0213385173084106 0.000142053139604884 0.0212370476152433 0.000141608455832007 
! Port Impedance         50               0                50               0                
3.54813389233575E-06           0.000157549659343355 0.12265060820997 0.999863040701353 -6.01142164410471E-05 0.999863040700898 -6.01142163392827E-05 5.01092548849475E-05 0.3113384426373  
! Gamma         0.0213385173084106 0.000159386244128213 0.0212370476152433 0.000158887300728716 
! Port Impedance         50               0                50               0                
3.98107170553497E-06           0.000157549625933975 0.137616055106873 0.999863040709226 -6.74492524130034E-05 0.999863040710135 -6.7449252412942E-05 5.01096710713161E-05 0.349324514546274 
! Gamma         0.0213385173084106 0.000178834307273733 0.0212370476152433 0.000178274483571845 
! Port Impedance         50               0                50               0                
4.46683592150963E-06           0.000157549586256202 0.154407482899657 0.999863040720774 -7.56792951879001E-05 0.999863040721683 -7.56792949842479E-05 5.0110195055219E-05 0.391944375670725 
! Gamma         0.0213385173084106 0.000200655393023436 0.0212370476152433 0.000200027260498763 
! Port Impedance         50               0                50               0                