! Touchstone file exported from HFSS 2024.2.0
!        File:           C:/00_Asenjo/00_Project/Ketupa/simulation/Ansys_Q2D_from_si9000/HFSS_Projects/Surface_Microstrip_1B_51.160 ohm_20250816_100927.aedt
!        Generated:      10:19:22 AM Aug 16, 2025
!        Design:         Surface_Microstrip_1B_(2)
!        Project:        Surface_Microstrip_1B_51.160 ohm_20250816_100927
!        Setup:          Setup1
!        Solution:       Sweep
!
! Variables:
!        $Er1 = 4
!        H1 = 30um
!        T1 = 15um
!        W1 = 50um
!        W2 = 48um
!        subX = 5mm
!        subY = 5mm
!
# GHz S MA R 50.000000
! Terminal data exported
! Port[1] = Microstrip_1B_T1
! Port[2] = Microstrip_1B_T2
0                              0.00136769000500016 0                0.998686492297656 0                0.998686492297799 0                0.00124494368970464 0                
! Gamma         0.0905566879259272 0                0.08972596892402 0                
! Port Impedance         50               0                50               0                
1E-09                          0.00136769000489205 1.20858635581073E-05 0.998686492297597 -2.00400356909465E-08 0.998686492297723 -2.00400357047329E-08 0.00124494368963655 2.97281151895927E-06 
! Gamma         0.0905566879259272 1.00720352804512E-07 0.08972596892402 9.98799159142823E-08 
! Port Impedance         50               0                50               0                
1.12201845430196E-09           0.00136769000501308 1.35605619469151E-05 0.998686492297688 -2.24852898700277E-08 0.998686492297842 -2.24852898867706E-08 0.00124494368975715 3.33554938407458E-06 
! Gamma         0.0905566879259272 1.13010094570467E-07 0.08972596892402 1.12067108869953E-07 
! Port Impedance         50               0                50               0                
1.25892541179417E-09           0.00136769000495699 1.52152007561793E-05 0.998686492297674 -2.52289101845225E-08 0.998686492297813 -2.5228910201721E-08 0.00124494368971487 3.7425479654281E-06 
! Gamma         0.0905566879259272 1.26799411630474E-07 0.08972596892402 1.25741364272355E-07 
! Port Impedance         50               0                50               0                
1.41253754462275E-09           0.00136769000499601 1.7071736034519E-05 0.998686492297694 -2.83073028079713E-08 0.998686492297845 -2.83073028282708E-08 0.00124494368973732 4.19920788361696E-06 
! Gamma         0.0905566879259272 1.42271279844023E-07 0.08972596892402 1.41084131182688E-07 
! Port Impedance         50               0                50               0                
1.58489319246111E-09           0.00136769000493794 1.91548028780799E-05 0.998686492297632 -3.17613161418819E-08 0.998686492297748 -3.176131616403E-08 0.0012449436896725 4.71158873935507E-06 
! Gamma         0.0905566879259272 1.59631001502153E-07 0.08972596892402 1.58298998796134E-07 
! Port Impedance         50               0                50               0                
1.77827941003892E-09           0.00136769000506635 2.14920423163271E-05 0.998686492297766 -3.5636782844202E-08 0.998686492297901 -3.5636782869652E-08 0.00124494368982025 5.28648951365927E-06 
! Gamma         0.0905566879259272 1.7910892956412E-07 0.08972596892402 1.77614397946787E-07 
! Port Impedance         50               0                50               0                
1.99526231496888E-09           0.00136769000498024 2.41144680986514E-05 0.998686492297648 -3.99851280059145E-08 0.998686492297776 -3.99851280336877E-08 0.00124494368969841 5.93153879156971E-06 
! Gamma         0.0905566879259272 2.00963524301213E-07 0.08972596892402 1.99286632246028E-07 
! Port Impedance         50               0                50               0                
2.23872113856834E-09           0.00136769000493381 2.70568782242882E-05 0.998686492297616 -4.48640515186484E-08 0.998686492297766 -4.48640515511154E-08 0.00124494368967357 6.65529598711919E-06 
! Gamma         0.0905566879259272 2.25484782907522E-07 0.08972596892402 2.23603279075732E-07 
! Port Impedance         50               0                50               0                
2.51188643150958E-09           0.0013676900049858 3.03583166830027E-05 0.998686492297645 -5.0338293737051E-08 0.998686492297784 -5.03382937727767E-08 0.00124494368974369 7.46736491701635E-06 
! Gamma         0.0905566879259272 2.52998087586512E-07 0.08972596892402 2.50887005565404E-07 
! Port Impedance         50               0                50               0                
2.81838293126445E-09           0.00136769000497112 3.40625915615343E-05 0.998686492297636 -5.64804945302546E-08 0.998686492297714 -5.64804945683534E-08 0.00124494368964003 8.37852124563349E-06 
! Gamma         0.0905566879259272 2.8386852317517E-07 0.08972596892402 2.81499850188942E-07 
! Port Impedance         50               0                50               0                
3.16227766016838E-09           0.00136769000505005 3.82188563280051E-05 0.998686492297687 -6.33721571743221E-08 0.998686492297777 -6.33721572164606E-08 0.00124494368973055 9.40085545397723E-06 
! Gamma         0.0905566879259272 3.18505721597986E-07 0.08972596892402 3.15848026795231E-07 
! Port Impedance         50               0                50               0                
3.54813389233575E-09           0.00136769000504791 4.28822621063064E-05 0.998686492297717 -7.11047298340959E-08 0.998686492297863 -7.11047298866261E-08 0.00124494368978482 1.0547933305416E-05 
! Gamma         0.0905566879259272 3.57369297433704E-07 0.08972596892402 3.5438731481911E-07 
! Port Impedance         50               0                50               0                
3.98107170553497E-09           0.00136769000492352 4.81146894505231E-05 0.99868649229759 -7.97808190599487E-08 0.998686492297691 -7.97808191138084E-08 0.00124494368964389 1.18349758294308E-05 
! Gamma         0.0905566879259272 4.00974946721543E-07 0.08972596892402 3.97629107197562E-07 
! Port Impedance         50               0                50               0                
4.46683592150963E-09           0.00136769000504639 5.39855694795962E-05 0.998686492297713 -8.95155512881258E-08 0.998686492297836 -8.95155513505779E-08 0.00124494368978885 1.3279061281559E-05 
! Gamma         0.0905566879259272 4.49901289934318E-07 0.08972596892402 4.46147196243278E-07 
! Port Impedance         50               0                50               0                
5.01187233627272E-09           0.00136769000501418 6.05728052230271E-05 0.998686492297681 -1.00438100491694E-07 0.998686492297783 -1.00438100558205E-07 0.00124494368973629 1.48993518166876E-05 
! Gamma         0.0905566879259272 5.04797549920562E-07 0.08972596892402 5.00585387520037E-07 
! Port Impedance         50               0                50               0                
5.62341325190349E-09           0.00136769000504136 6.79638052848263E-05 0.998686492297688 -1.12693402270501E-07 0.99868649229784 -1.12693402349388E-07 0.00124494368978608 1.67173476887464E-05 
! Gamma         0.0905566879259272 5.66392166697288E-07 0.08972596892402 5.61666042751382E-07 
! Port Impedance         50               0                50               0                
6.30957344480193E-09           0.0013676900050115 7.62566437595035E-05 0.998686492297701 -1.26444077020253E-07 0.998686492297799 -1.26444077107797E-07 0.00124494368975976 1.87571726197067E-05 
! Gamma         0.0905566879259272 6.35502463406431E-07 0.08972596892402 6.30199665121806E-07 
! Port Impedance         50               0                50               0                
7.07945784384138E-09           0.00136769000502537 8.55613615523258E-05 0.998686492297695 -1.41872587865837E-07 0.998686492297784 -1.41872587962565E-07 0.00124494368973706 2.10458938234745E-05 
! Gamma         0.0905566879259272 7.13045491696373E-07 0.08972596892402 7.07095654161583E-07 
! Port Impedance         50               0                50               0                
7.94328234724282E-09           0.0013676900049739 9.60014266445887E-05 0.998686492297687 -1.59183661742536E-07 0.998686492297751 -1.59183661847644E-07 0.00124494368966087 2.3613881264809E-05 
! Gamma         0.0905566879259272 8.00050200440149E-07 0.08972596892402 7.93374372926015E-07 
! Port Impedance         50               0                50               0                
8.91250938133745E-09           0.00136769000499066 0.000107715372338038 0.998686492297653 -1.78607006087071E-07 0.998686492297775 -1.78607006209557E-07 0.00124494368970876 2.64952105591706E-05 
! Gamma         0.0905566879259272 8.97671089261831E-07 0.08972596892402 8.90180687593237E-07 
! Port Impedance         50               0                50               0                
1E-08                          0.00136769000505919 0.00012085863556189 0.998686492297746 -2.00400356904891E-07 0.998686492297861 -2.00400357045041E-07 0.00124494368980055 2.97281151883616E-05 
! Gamma         0.0905566879259272 1.00720352804512E-06 0.08972596892402 9.98799159142823E-07 
! Port Impedance         50               0                50               0                
1.12201845430196E-08           0.0013676900049685 0.000135605619470381 0.998686492297654 -2.24852898693866E-07 0.998686492297795 -2.24852898851428E-07 0.00124494368973722 3.33554938553166E-05 
! Gamma         0.0905566879259272 1.13010094570467E-06 0.08972596892402 1.12067108869953E-06 
! Port Impedance         50               0                50               0                
1.25892541179417E-08           0.00136769000502426 0.000152152007543363 0.998686492297661 -2.52289101831283E-07 0.998686492297723 -2.52289101996054E-07 0.00124494368966036 3.74254796750616E-05 
! Gamma         0.0905566879259272 1.26799411630474E-06 0.08972596892402 1.25741364272355E-06 
! Port Impedance         50               0                50               0                
1.41253754462275E-08           0.00136769000505104 0.000170717360306584 0.998686492297697 -2.83073028087463E-07 0.998686492297835 -2.83073028289337E-07 0.00124494368982261 4.19920788273127E-05 
! Gamma         0.0905566879259272 1.42271279844023E-06 0.08972596892402 1.41084131182687E-06 
! Port Impedance         50               0                50               0                
1.58489319246111E-08           0.00136769000501545 0.000191548028746532 0.998686492297651 -3.17613161416413E-07 0.998686492297698 -3.17613161618506E-07 0.00124494368967178 4.71158874182766E-05 
! Gamma         0.0905566879259272 1.59631001502153E-06 0.08972596892402 1.58298998796134E-06 
! Port Impedance         50               0                50               0                
1.77827941003892E-08           0.00136769000498252 0.000214920423135287 0.998686492297658 -3.56367828433949E-07 0.998686492297728 -3.56367828676342E-07 0.00124494368969419 5.28648951683862E-05 
! Gamma         0.0905566879259272 1.7910892956412E-06 0.08972596892402 1.77614397946787E-06 
! Port Impedance         50               0                50               0                
1.99526231496888E-08           0.00136769000496913 0.000241144680953797 0.998686492297617 -3.99851280025293E-07 0.998686492297751 -3.99851280305172E-07 0.00124494368972278 5.93153879570547E-05 
! Gamma         0.0905566879259272 2.00963524301213E-06 0.08972596892402 1.99286632246028E-06 
! Port Impedance         50               0                50               0                
2.23872113856834E-08           0.00136769000506267 0.000270568782151835 0.998686492297713 -4.48640515161523E-07 0.998686492297849 -4.48640515472629E-07 0.0012449436898548 6.65529599113628E-05 
! Gamma         0.0905566879259272 2.25484782907522E-06 0.08972596892402 2.23603279075732E-06 
! Port Impedance         50               0                50               0                
2.51188643150958E-08           0.00136769000505205 0.000303583166711864 0.998686492297703 -5.03382937360064E-07 0.998686492297795 -5.03382937698215E-07 0.00124494368981106 7.46736492270126E-05 
! Gamma         0.0905566879259272 2.52998087586511E-06 0.08972596892402 2.50887005565403E-06 
! Port Impedance         50               0                50               0                
2.81838293126445E-08           0.00136769000499585 0.00034062591545008 0.998686492297611 -5.64804945278466E-07 0.998686492297701 -5.64804945675074E-07 0.00124494368976457 8.37852124873968E-05 
! Gamma         0.0905566879259272 2.8386852317517E-06 0.08972596892402 2.81499850188942E-06 
! Port Impedance         50               0                50               0                
3.16227766016838E-08           0.00136769000503174 0.000382188563116883 0.998686492297652 -6.3372157165401E-07 0.998686492297767 -6.33721572105241E-07 0.00124494368981233 9.40085546511035E-05 
! Gamma         0.0905566879259272 3.18505721597986E-06 0.08972596892402 3.15848026795231E-06 
! Port Impedance         50               0                50               0                
3.54813389233575E-08           0.0013676900050486 0.000428822620750442 0.998686492297688 -7.11047298303622E-07 0.998686492297791 -7.11047298804201E-07 0.00124494368989439 0.000105479333174436 
! Gamma         0.0905566879259272 3.57369297433704E-06 0.08972596892402 3.5438731481911E-06 
! Port Impedance         50               0                50               0                
3.98107170553497E-08           0.00136769000500151 0.000481146894054213 0.998686492297591 -7.97808190524807E-07 0.998686492297721 -7.97808191081289E-07 0.00124494368986982 0.000118349758431905 
! Gamma         0.0905566879259272 4.00974946721543E-06 0.08972596892402 3.97629107197562E-06 
! Port Impedance         50               0                50               0                
4.46683592150963E-08           0.00136769000504275 0.000539855694217483 0.998686492297643 -8.95155512760344E-07 0.998686492297671 -8.95155513335152E-07 0.00124494368986933 0.000132790613106536 
! Gamma         0.0905566879259272 4.49901289934317E-06 0.08972596892402 4.46147196243278E-06 
! Port Impedance         50               0                50               0                
5.01187233627272E-08           0.00136769000497838 0.000605728051418678 0.998686492297531 -1.0043810047506E-06 0.998686492297621 -1.00438100542447E-06 0.00124494368990598 0.000148993518514362 
! Gamma         0.0905566879259272 5.04797549920562E-06 0.08972596892402 5.00585387520037E-06 
! Port Impedance         50               0                50               0                
5.62341325190349E-08           0.00136769000498035 0.000679638051786263 0.998686492297566 -1.12693402238106E-06 0.998686492297667 -1.12693402315692E-06 0.00124494368999598 0.000167173477479914 
! Gamma         0.0905566879259272 5.66392166697288E-06 0.08972596892402 5.61666042751382E-06 
! Port Impedance         50               0                50               0                
6.30957344480193E-08           0.00136769000501677 0.000762566436008786 0.998686492297557 -1.26444076979494E-06 0.998686492297668 -1.26444077069692E-06 0.00124494369010491 0.000187571726929769 
! Gamma         0.0905566879259272 6.35502463406431E-06 0.08972596892402 6.30199665121806E-06 
! Port Impedance         50               0                50               0                
7.07945784384138E-08           0.00136769000498209 0.000855613613344463 0.998686492297472 -1.41872587800834E-06 0.998686492297574 -1.41872587899176E-06 0.00124494369016835 0.000210458939323807 
! Gamma         0.0905566879259272 7.13045491696374E-06 0.08972596892402 7.07095654161583E-06 
! Port Impedance         50               0                50               0                
7.94328234724281E-08           0.00136769000498674 0.000960014263305866 0.9986864922974  -1.59183661649635E-06 0.998686492297509 -1.59183661757368E-06 0.00124494369027772 0.000236138814152975 
! Gamma         0.0905566879259272 8.00050200440148E-06 0.08972596892402 7.93374372926015E-06 
! Port Impedance         50               0                50               0                
8.91250938133746E-08           0.00136769000502111 0.00107715371886955 0.998686492297387 -1.78607005969267E-06 0.998686492297509 -1.78607006092211E-06 0.00124494369050631 0.000264952107647665 
! Gamma         0.0905566879259272 8.97671089261831E-06 0.08972596892402 8.90180687593237E-06 
! Port Impedance         50               0                50               0                
1E-07                          0.00136769000491573 0.00120858634945259 0.998686492297216 -2.00400356732949E-06 0.998686492297328 -2.00400356866942E-06 0.00124494369057541 0.000297281154951658 
! Gamma         0.0905566879259272 1.00720352804512E-05 0.08972596892402 9.98799159142823E-06 
! Port Impedance         50               0                50               0                
1.12201845430196E-07           0.00136769000494891 0.00135605618584524 0.998686492297152 -2.24852898453124E-06 0.998686492297303 -2.24852898613998E-06 0.00124494369087211 0.000333554942791184 
! Gamma         0.0905566879259272 1.13010094570467E-05 0.08972596892402 1.12067108869953E-05 
! Port Impedance         50               0                50               0                
1.25892541179417E-07           0.00136769000499189 0.00152152006290478 0.998686492297058 -2.5228910149815E-06 0.998686492297159 -2.52289101665496E-06 0.0012449436911693 0.000374254802587816 
! Gamma         0.0905566879259272 1.26799411630474E-05 0.08972596892402 1.25741364272355E-05 
! Port Impedance         50               0                50               0                
1.41253754462275E-07           0.00136769000508028 0.00170717358535379 0.998686492296975 -2.83073027605045E-06 0.998686492297035 -2.83073027791847E-06 0.00124494369161393 0.000419920796825428 
! Gamma         0.0905566879259272 1.42271279844023E-05 0.08972596892402 1.41084131182687E-05 
! Port Impedance         50               0                50               0                
1.58489319246111E-07           0.00136769000505973 0.00191548026233728 0.998686492296803 -3.17613160738935E-06 0.998686492296903 -3.1761316095592E-06 0.00124494369213886 0.000471158885891104 
! Gamma         0.0905566879259272 1.59631001502153E-05 0.08972596892402 1.58298998796135E-05 
! Port Impedance         50               0                50               0                
1.77827941003892E-07           0.00136769000502187 0.00214920419592784 0.998686492296476 -3.56367827478508E-06 0.998686492296542 -3.56367827711557E-06 0.0012449436926452 0.000528648968472 
! Gamma         0.0905566879259272 1.7910892956412E-05 0.08972596892402 1.77614397946787E-05 
! Port Impedance         50               0                50               0                
1.99526231496888E-07           0.00136769000494915 0.002411446759876 0.998686492296138 -3.9985127864132E-06 0.998686492296262 -3.99851278919215E-06 0.00124494369342251 0.000593153903487394 
! Gamma         0.0905566879259272 2.00963524301213E-05 0.08972596892402 1.99286632246028E-05 
! Port Impedance         50               0                50               0                
2.23872113856834E-07           0.00136769000502189 0.00270568775115095 0.998686492295796 -4.48640513236591E-06 0.9986864922959  -4.48640513536105E-06 0.00124494369445576 0.000665529632720222 
! Gamma         0.0905566879259272 2.25484782907522E-05 0.08972596892402 2.23603279075732E-05 
! Port Impedance         50               0                50               0                
2.51188643150958E-07           0.00136769000501759 0.00303583156785824 0.998686492295286 -5.03382934611783E-06 0.998686492295378 -5.03382934953983E-06 0.00124494369562265 0.000746736539787873 
! Gamma         0.0905566879259272 2.52998087586512E-05 0.08972596892402 2.50887005565403E-05 
! Port Impedance         50               0                50               0                
2.81838293126445E-07           0.00136769000507147 0.00340625901432536 0.998686492294724 -5.64804941369941E-06 0.998686492294846 -5.64804941762892E-06 0.00124494369725831 0.000837852192276102 
! Gamma         0.0905566879259272 2.83868523175171E-05 0.08972596892402 2.81499850188942E-05 
! Port Impedance         50               0                50               0                
3.16227766016838E-07           0.001367690004999 0.00382188543297388 0.998686492293884 -6.33721566203802E-06 0.998686492294017 -6.33721566636741E-06 0.00124494369915425 0.00094008564114459 
! Gamma         0.0905566879259272 3.18505721597986E-05 0.08972596892402 3.15848026795231E-05 
! Port Impedance         50               0                50               0                
3.54813389233575E-07           0.00136769000502489 0.00428822592776603 0.998686492292957 -7.11047290562898E-06 0.998686492293139 -7.11047291088588E-06 0.00124494370164875 0.00105479346561604 
! Gamma         0.0905566879259272 3.57369297433704E-05 0.08972596892402 3.5438731481911E-05 
! Port Impedance         50               0                50               0                
3.98107170553497E-07           0.00136769000510377 0.00481146854448741 0.998686492291742 -7.97808179641703E-06 0.998686492291841 -7.97808180181342E-06 0.00124494370471415 0.00118349777323935 
! Gamma         0.0905566879259272 4.00974946721543E-05 0.08972596892402 3.97629107197562E-05 
! Port Impedance         50               0                50               0                
4.46683592150963E-07           0.0013676900050495 0.00539855638405018 0.998686492290173 -8.95155497262711E-06 0.998686492290309 -8.95155497899653E-06 0.00124494370854919 0.00132790639836304 
! Gamma         0.0905566879259272 4.49901289934317E-05 0.08972596892402 4.46147196243278E-05 
! Port Impedance         50               0                50               0                
5.01187233627272E-07           0.00136769000506456 0.00605727972514706 0.998686492288214 -1.00438098292148E-05 0.998686492288343 -1.0043809836422E-05 0.00124494371341363 0.00148993556237463 
! Gamma         0.0905566879259272 5.04797549920563E-05 0.08972596892402 5.00585387520037E-05 
! Port Impedance         50               0                50               0                
5.62341325190349E-07           0.00136769000519617 0.00679637940230107 0.998686492285896 -1.1269339916217E-05 0.998686492286023 -1.12693399240938E-05 0.001244943719642 0.00167173530741505 
! Gamma         0.0905566879259272 5.66392166697288E-05 0.08972596892402 5.61666042751382E-05 
! Port Impedance         50               0                50               0                
6.30957344480193E-07           0.00136769000519848 0.00762566278490426 0.998686492282788 -1.26444072630629E-05 0.998686492282859 -1.26444072716066E-05 0.00124494372730577 0.00187571802247238 
! Gamma         0.0905566879259272 6.3550246340643E-05 0.08972596892402 6.30199665121805E-05 
! Port Impedance         50               0                50               0                
7.07945784384138E-07           0.00136769000524146 0.0085561339088869 0.998686492278909 -1.41872581650243E-05 0.998686492279027 -1.41872581749769E-05 0.00124494373706315 0.00210459045719803 
! Gamma         0.0905566879259272 7.13045491696374E-05 0.08972596892402 7.07095654161583E-05 
! Port Impedance         50               0                50               0                
7.94328234724281E-07           0.00136769000536547 0.0096001394898552 0.998686492274131 -1.59183652971795E-05 0.998686492274232 -1.59183653082382E-05 0.0012449437493731 0.00236138964366229 
! Gamma         0.0905566879259272 8.00050200440148E-05 0.08972596892402 7.93374372926015E-05 
! Port Impedance         50               0                50               0                
8.91250938133746E-07           0.00136769000538109 0.0107715327496552 0.998686492267957 -1.78606993709038E-05 0.998686492268071 -1.78606993828772E-05 0.00124494376477754 0.00264952319951756 
! Gamma         0.0905566879259272 8.97671089261832E-05 0.08972596892402 8.90180687593237E-05 
! Port Impedance         50               0                50               0                
1E-06                          0.00136769000555225 0.0120858572228056 0.998686492260293 -2.00400339411576E-05 0.998686492260435 -2.00400339549263E-05 0.001244943784302 0.00297281454668463 
! Gamma         0.0905566879259272 0.000100720352804512 0.08972596892402 9.98799159142823E-05 
! Port Impedance         50               0                50               0                
1.12201845430196E-06           0.00136769000565093 0.0135605530006107 0.998686492250609 -2.24852873980277E-05 0.998686492250689 -2.24852874135243E-05 0.00124494380866947 0.0033355536635926 
! Gamma         0.0905566879259272 0.000113010094570467 0.08972596892402 0.000112067108869953 
! Port Impedance         50               0                50               0                
1.25892541179417E-06           0.00136769000582168 0.0152151881176694 0.998686492238391 -2.52289066933142E-05 0.998686492238526 -2.52289067107094E-05 0.00124494383953307 0.00374255400780784 
! Gamma         0.0905566879259272 0.000126799411630474 0.08972596892402 0.000125741364272355 
! Port Impedance         50               0                50               0                
1.41253754462275E-06           0.00136769000602877 0.0170717181826109 0.998686492223055 -2.83072978770271E-05 0.998686492223177 -2.83072978968863E-05 0.0012449438783027 0.00419921641882332 
! Gamma         0.0905566879259272 0.000142271279844023 0.08972596892402 0.000141084131182687 
! Port Impedance         50               0                50               0                
1.58489319246111E-06           0.00136769000634953 0.0191547776603914 0.998686492203761 -3.17613091767598E-05 0.998686492203872 -3.17613091986995E-05 0.00124494392715265 0.00471160079497752 
! Gamma         0.0905566879259272 0.000159631001502153 0.08972596892402 0.000158298998796135 
! Port Impedance         50               0                50               0                
1.77827941003892E-06           0.00136769000657492 0.0214920066980701 0.998686492179351 -3.56367730069732E-05 0.99868649217948 -3.56367730322692E-05 0.00124494398855577 0.00528650654253714 
! Gamma         0.0905566879259272 0.00017910892956412 0.08972596892402 0.000177614397946787 
! Port Impedance         50               0                50               0                
1.99526231496888E-06           0.00136769000699987 0.0241144177898407 0.998686492148735 -3.9985114104208E-05 0.998686492148839 -3.99851141320423E-05 0.00124494406593117 0.00593156285030176 
! Gamma         0.0905566879259272 0.000200963524301213 0.08972596892402 0.000199286632246028 
! Port Impedance         50               0                50               0                
2.23872113856834E-06           0.00136769000757642 0.0270568071563865 0.998686492110219 -4.48640318851392E-05 0.99868649211032 -4.48640319158811E-05 0.0012449441633708 0.00665532996925328 
! Gamma         0.0905566879259272 0.000225484782907522 0.08972596892402 0.000223603279075732 
! Port Impedance         50               0                50               0                
2.51188643150958E-06           0.00136769000813209 0.0303582162992036 0.99868649206157 -5.03382660070809E-05 0.998686492061665 -5.03382660419403E-05 0.00124494428591923 0.00746741291594798 
! Gamma         0.0905566879259272 0.000252998087586511 0.08972596892402 0.000250887005565403 
! Port Impedance         50               0                50               0                
2.81838293126445E-06           0.0013676900090218 0.034062449762667 0.998686492000512 -5.64804553610809E-05 0.998686492000648 -5.64804554001858E-05 0.00124494444036454 0.00837858904222051 
! Gamma         0.0905566879259272 0.000283868523175171 0.08972596892402 0.000281499850188942 
! Port Impedance         50               0                50               0                
3.16227766016838E-06           0.00136769001001053 0.0382186560411473 0.998686491923521 -6.33721018397689E-05 0.99868649192367 -6.33721018842587E-05 0.00124494463469975 0.0094009512256689 
! Gamma         0.0905566879259272 0.000318505721597986 0.08972596892402 0.000315848026795231 
! Port Impedance         50               0                50               0                
3.54813389233575E-06           0.00136769001131779 0.0428819791860173 0.998686491826636 -7.11046516797137E-05 0.998686491826766 -7.11046517304145E-05 0.00124494487938136 0.0105480685817849 
! Gamma         0.0905566879259272 0.000357369297433703 0.08972596892402 0.00035438731481911 
! Port Impedance         50               0                50               0                
3.98107170553497E-06           0.00136769001296495 0.0481142898087217 0.998686491704688 -7.97807086663072E-05 0.998686491704824 -7.97807087225052E-05 0.00124494518741998 0.0118351669091156 
! Gamma         0.0905566879259272 0.000400974946721543 0.08972596892402 0.000397629107197562 
! Port Impedance         50               0                50               0                
4.46683592150963E-06           0.00136769001501224 0.0539850049827778 0.998686491551173 -8.95153953441832E-05 0.998686491551295 -8.95153954090551E-05 0.0012449455752117 0.0132793311950371 
! Gamma         0.0905566879259272 0.000449901289934317 0.08972596892402 0.000446147196243278 
! Port Impedance         50               0                50               0                
5.01187233627272E-06           0.00136769001753883 0.0605720078535065 0.99868649135781 -0.000100437880213005 0.998686491357932 -0.000100437880283224 0.00124494606334144 0.014899733082464 
! Gamma         0.0905566879259272 0.000504797549920563 0.08972596892402 0.000500585387520037 
! Port Impedance         50               0                50               0                