! Touchstone file exported from HFSS 2024.2.0
!        File:           C:/00_Asenjo/00_Project/Ketupa/simulation/Ansys_HFSS_waveguide/CPW/HFSS_Projects/sma_connectorized_cpw.aedt
!        Generated:      11:45:58 AM Sep  1, 2025
!        Design:         sma_connectorized_cpw
!        Project:        sma_connectorized_cpw
!        Setup:          Setup1
!        Solution:       Sweep
!
# GHz S MA R 50.000000
! Terminal data exported
! Port[1] = sma_cpw_Unnamed_4_T1
! Port[2] = micro_line_T1
0                              0.000142007995739741 0                0.999868945567858 0                0.999868945568175 0                0.000130241914844577 0                
! Gamma         50               0                50               0                
! Port Impedance         50               0                50               0                
1E-09                          0.000142007995180374 0.000339042461949056 0.999868945567   -1.26233187748777E-07 0.999868945566589 -1.26233187358391E-07 0.000130241913557457 0.000367935218185444 
! Gamma         50               0                50               0                
! Port Impedance         50               0                50               0                
1.12201845430196E-09           0.000142007994739098 0.000380411901992392 0.999868945566651 -1.41635966078553E-07 0.999868945566582 -1.41635965710695E-07 0.000130241913457603 0.000412830105611207 
! Gamma         50               0                50               0                
! Port Impedance         50               0                50               0                
1.25892541179417E-09           0.000142007996362001 0.000426829165607894 0.999868945568406 -1.58918168239309E-07 0.999868945568573 -1.58918168244573E-07 0.00013024191531601 0.000463202982494004 
! Gamma         50               0                50               0                
! Port Impedance         50               0                50               0                
1.41253754462275E-09           0.000142007995136706 0.000478910206719148 0.999868945567296 -1.78309117362712E-07 0.999868945567313 -1.78309117363001E-07 0.000130241913940657 0.000519722303685066 
! Gamma         50               0                50               0                
! Port Impedance         50               0                50               0                
1.58489319246111E-09           0.000142007995699136 0.000537346087213545 0.999868945567605 -2.00066120172634E-07 0.999868945567207 -2.00066119865858E-07 0.000130241914088236 0.000583138018136507 
! Gamma         50               0                50               0                
! Port Impedance         50               0                50               0                
1.77827941003892E-09           0.000142007995752403 0.000602912226693526 0.999868945567735 -2.24477878929304E-07 0.999868945567494 -2.24477878598137E-07 0.000130241914297763 0.000654291613874667 
! Gamma         50               0                50               0                
! Port Impedance         50               0                50               0                
1.99526231496888E-09           0.000142007995244207 0.000676478653470927 0.99986894556731 -2.5186832190567E-07 0.999868945566872 -2.51868321201497E-07 0.000130241913820853 0.000734127276656107 
! Gamma         50               0                50               0                
! Port Impedance         50               0                50               0                
2.23872113856834E-09           0.000142007995405291 0.000759021537809606 0.999868945567722 -2.8260090444128E-07 0.999868945567957 -2.82600904386075E-07 0.000130241914654469 0.000823704350504946 
! Gamma         50               0                50               0                
! Port Impedance         50               0                50               0                
2.51188643150958E-09           0.000142007996502685 0.000851636158584764 0.999868945568534 -3.17083430710471E-07 0.999868945568561 -3.17083430719781E-07 0.00013024191531652 0.000924211467475917 
! Gamma         50               0                50               0                
! Port Impedance         50               0                50               0                
2.81838293126445E-09           0.000142007995559068 0.000955551482554714 0.999868945567779 -3.557734625827E-07 0.99986894556781 -3.55773462583853E-07 0.000130241914605098 0.00103698231638092 
! Gamma         50               0                50               0                
! Port Impedance         50               0                50               0                
3.16227766016838E-09           0.000142007996221679 0.0010721464125247 0.999868945568263 -3.99184387281507E-07 0.999868945568286 -3.99184387003473E-07 0.000130241915030194 0.00116351331872385 
! Gamma         50               0                50               0                
! Port Impedance         50               0                50               0                
3.54813389233575E-09           0.00014200799641072 0.00120296804343369 0.999868945568709 -4.47892251693459E-07 0.999868945569119 -4.47892253005155E-07 0.000130241915834012 0.0013054833749433 
! Gamma         50               0                50               0                
! Port Impedance         50               0                50               0                
3.98107170553497E-09           0.000142007996232916 0.0013497523431528 0.999868945567938 -5.02543371782477E-07 0.999868945567613 -5.02543370073917E-07 0.00013024191469301 0.00146477646971678 
! Gamma         50               0                50               0                
! Port Impedance         50               0                50               0                
4.46683592150963E-09           0.00014200799571169 0.0015144470569544 0.999868945567816 -5.6386293597138E-07 0.999868945567918 -5.63862936191102E-07 0.000130241914824797 0.00164350623282731 
! Gamma         50               0                50               0                
! Port Impedance         50               0                50               0                
5.01187233627272E-09           0.000142007995681292 0.00169923753156289 0.999868945567809 -6.32664622323798E-07 0.999868945567623 -6.32664621473728E-07 0.000130241914278939 0.0018440443181397 
! Gamma         50               0                50               0                
! Port Impedance         50               0                50               0                
5.62341325190349E-09           0.000142007996627529 0.00190657586547291 0.9998689455688  -7.09861381013825E-07 0.999868945568953 -7.09861381826433E-07 0.000130241915790383 0.00206905173098297 
! Gamma         50               0                50               0                
! Port Impedance         50               0                50               0                
6.30957344480193E-09           0.000142007995807492 0.00213921333453026 0.999868945567738 -7.96477565033296E-07 0.999868945568213 -7.96477565844469E-07 0.00013024191506422 0.00232151426070847 
! Gamma         50               0                50               0                
! Port Impedance         50               0                50               0                
7.07945784384138E-09           0.000142007996060706 0.00240023681319571 0.999868945567794 -8.93662530773448E-07 0.999868945567649 -8.9366252842901E-07 0.000130241914695218 0.00260478183803957 
! Gamma         50               0                50               0                
! Port Impedance         50               0                50               0                
7.94328234724282E-09           0.000142007996334613 0.00269310995600025 0.999868945567941 -1.00270585446064E-06 0.999868945567637 -1.0027058522515E-06 0.000130241914808425 0.00292261325333886 
! Gamma         50               0                50               0                
! Port Impedance         50               0                50               0                
8.91250938133745E-09           0.000142007995688314 0.00302171910240541 0.999868945567506 -1.12505447113944E-06 0.999868945567417 -1.12505447491927E-06 0.000130241914828851 0.00327922599147177 
! Gamma         50               0                50               0                
! Port Impedance         50               0                50               0                
1E-08                          0.000142007996105129 0.00339042463224472 0.999868945568019 -1.26233187394789E-06 0.999868945567848 -1.26233187630471E-06 0.00013024191493294 0.00367935213210077 
! Gamma         50               0                50               0                
! Port Impedance         50               0                50               0                
1.12201845430196E-08           0.000142007995823898 0.00380411901514442 0.99986894556778 -1.41635965996888E-06 0.999868945568087 -1.41635966022861E-06 0.000130241914898435 0.00412830099766827 
! Gamma         50               0                50               0                
! Port Impedance         50               0                50               0                
1.25892541179417E-08           0.000142007995401803 0.00426829173623704 0.99986894556711 -1.58918167584643E-06 0.999868945567125 -1.58918167445007E-06 0.000130241914407038 0.00463202992271213 
! Gamma         50               0                50               0                
! Port Impedance         50               0                50               0                
1.41253754462275E-08           0.00014200799596241 0.00478910209617661 0.99986894556735 -1.78309116345662E-06 0.999868945567689 -1.78309116729477E-06 0.000130241915057522 0.00519722303723324 
! Gamma         50               0                50               0                
! Port Impedance         50               0                50               0                
1.58489319246111E-08           0.000142007996352813 0.00537346091383279 0.999868945567475 -2.00066119094442E-06 0.999868945567551 -2.00066119313507E-06 0.000130241915177973 0.00583138016144154 
! Gamma         50               0                50               0                
! Port Impedance         50               0                50               0                
1.77827941003892E-08           0.000142007996323887 0.00602912228283353 0.999868945567398 -2.24477877971711E-06 0.999868945567187 -2.24477877889904E-06 0.000130241915079249 0.00654291615510608 
! Gamma         50               0                50               0                
! Port Impedance         50               0                50               0                
1.99526231496888E-08           0.000142007996947125 0.00676478640375013 0.999868945567939 -2.51868322590748E-06 0.999868945567686 -2.51868322189696E-06 0.000130241915647465 0.00734127261617674 
! Gamma         50               0                50               0                
! Port Impedance         50               0                50               0                
2.23872113856834E-08           0.000142007997696779 0.00759021516764552 0.999868945568735 -2.82600905880372E-06 0.999868945568903 -2.82600905966217E-06 0.000130241917029441 0.0082370432490566 
! Gamma         50               0                50               0                
! Port Impedance         50               0                50               0                
2.51188643150958E-08           0.000142007997643341 0.00851636156729153 0.999868945568116 -3.17083430213809E-06 0.999868945568285 -3.17083430626909E-06 0.000130241916956496 0.00924211463573383 
! Gamma         50               0                50               0                
! Port Impedance         50               0                50               0                
2.81838293126445E-08           0.000142007997403604 0.00955551491520012 0.999868945567675 -3.55773460339515E-06 0.999868945567715 -3.5577345978718E-06 0.000130241916562702 0.0103698232669568 
! Gamma         50               0                50               0                
! Port Impedance         50               0                50               0                
3.16227766016838E-08           0.00014200799835407 0.0107214639543044 0.999868945567753 -3.99184388809059E-06 0.999868945567988 -3.99184389558233E-06 0.000130241917676765 0.0116351328472885 
! Gamma         50               0                50               0                
! Port Impedance         50               0                50               0                
3.54813389233575E-08           0.000142007998244533 0.0120296803630213 0.99986894556691 -4.47892251462411E-06 0.999868945566977 -4.47892251319641E-06 0.000130241917357476 0.0130548338031081 
! Gamma         50               0                50               0                
! Port Impedance         50               0                50               0                
3.98107170553497E-08           0.000142007999965076 0.0134975231999225 0.999868945567751 -5.02543370938403E-06 0.999868945567026 -5.02543370050953E-06 0.000130241918462492 0.0146477644626683 
! Gamma         50               0                50               0                
! Port Impedance         50               0                50               0                
4.46683592150963E-08           0.000142007999811986 0.0151444702774673 0.999868945566961 -5.63862936421478E-06 0.999868945566908 -5.63862935772577E-06 0.000130241919146425 0.016435062014019 
! Gamma         50               0                50               0                
! Port Impedance         50               0                50               0                
5.01187233627272E-08           0.000142008001826296 0.0169923748838847 0.999868945567664 -6.32664621443338E-06 0.999868945567848 -6.32664624442779E-06 0.000130241921543375 0.0184404422896107 
! Gamma         50               0                50               0                
! Port Impedance         50               0                50               0                
5.62341325190349E-08           0.000142008003798765 0.0190657580744002 0.99986894556804 -7.0986138010939E-06 0.99986894556794 -7.09861381332146E-06 0.000130241923359705 0.0206905165893933 
! Gamma         50               0                50               0                
! Port Impedance         50               0                50               0                
6.30957344480193E-08           0.000142008005543485 0.0213921321648335 0.999868945567574 -7.96477568851449E-06 0.999868945568142 -7.96477570434648E-06 0.000130241925871567 0.0232151409390584 
! Gamma         50               0                50               0                
! Port Impedance         50               0                50               0                
7.07945784384138E-08           0.000142008008426491 0.024002366517531 0.999868945567789 -8.93662533400554E-06 0.999868945567996 -8.93662536312014E-06 0.000130241928687812 0.0260478159615396 
! Gamma         50               0                50               0                
! Port Impedance         50               0                50               0                
7.94328234724281E-08           0.000142008012182462 0.0269310980646575 0.999868945568253 -1.00270584793592E-05 0.999868945568362 -1.00270584865899E-05 0.000130241932371995 0.0292261302671072 
! Gamma         50               0                50               0                
! Port Impedance         50               0                50               0                
8.91250938133746E-08           0.000142008016263587 0.0302171881314314 0.999868945568407 -1.12505447004427E-05 0.999868945568391 -1.12505447092714E-05 0.000130241936755213 0.032792256444055 
! Gamma         50               0                50               0                
! Port Impedance         50               0                50               0                
1E-07                          0.00014200802067788 0.033904241903069 0.999868945567482 -1.26233188029763E-05 0.999868945567512 -1.26233188286535E-05 0.000130241941805122 0.0367935157439272 
! Gamma         50               0                50               0                
! Port Impedance         50               0                50               0                
1.12201845430196E-07           0.000142008027127897 0.0380411843784489 0.999868945567531 -1.41635965797757E-05 0.99986894556737 -1.41635965559642E-05 0.000130241948343256 0.0412830033236494 
! Gamma         50               0                50               0                
! Port Impedance         50               0                50               0                
1.25892541179417E-07           0.000142008035676905 0.0426829088902059 0.999868945567909 -1.58918168077926E-05 0.999868945568147 -1.58918167890758E-05 0.00013024195792203 0.0463202884971656 
! Gamma         50               0                50               0                
! Port Impedance         50               0                50               0                
1.41253754462275E-07           0.000142008045834694 0.0478910095704631 0.999868945568132 -1.78309116991675E-05 0.999868945568313 -1.7830911710745E-05 0.000130241969202892 0.051972215690749 
! Gamma         50               0                50               0                
! Port Impedance         50               0                50               0                
1.58489319246111E-07           0.000142008059149366 0.0537345928663349 0.999868945568057 -2.00066119717135E-05 0.999868945567804 -2.00066119276199E-05 0.000130241983099851 0.0583137810574286 
! Gamma         50               0                50               0                
! Port Impedance         50               0                50               0                
1.77827941003892E-07           0.00014200807439046 0.060291201084112 0.999868945567154 -2.24477878157426E-05 0.999868945567334 -2.24477878367007E-05 0.000130242000035385 0.0654291327963687 
! Gamma         50               0                50               0                
! Port Impedance         50               0                50               0                
1.99526231496888E-07           0.000142008095604954 0.0676478336329706 0.999868945567474 -2.51868320755214E-05 0.999868945567508 -2.51868320503212E-05 0.000130242022787578 0.0734126865075841 
! Gamma         50               0                50               0                
! Port Impedance         50               0                50               0                
2.23872113856834E-07           0.000142008120447033 0.0759021083560055 0.999868945566796 -2.82600905129458E-05 0.999868945566854 -2.82600905376961E-05 0.000130242049915495 0.0823703770764477 
! Gamma         50               0                50               0                
! Port Impedance         50               0                50               0                
2.51188643150958E-07           0.000142008153683567 0.0851635522552857 0.999868945567058 -3.1708343160363E-05 0.999868945567039 -3.17083431182406E-05 0.000130242085831589 0.092421065484312 
! Gamma         50               0                50               0                
! Port Impedance         50               0                50               0                
2.81838293126445E-07           0.000142008194457663 0.095555060190006 0.999868945566921 -3.55773460098903E-05 0.999868945567126 -3.55773460597721E-05 0.000130242130427526 0.103698117744607 
! Gamma         50               0                50               0                
! Port Impedance         50               0                50               0                
3.16227766016838E-07           0.000142008244615729 0.107214514244966 0.999868945565411 -3.9918438999646E-05 0.99986894556533 -3.99184389958718E-05 0.000130242184376926 0.116351169090397 
! Gamma         50               0                50               0                
! Port Impedance         50               0                50               0                
3.54813389233575E-07           0.000142008309993924 0.120296626999599 0.999868945565665 -4.47892250947193E-05 0.999868945565494 -4.47892250856314E-05 0.000130242255188461 0.130548111754226 
! Gamma         50               0                50               0                
! Port Impedance         50               0                50               0                
3.98107170553497E-07           0.00014200839220827 0.134974981468616 0.999868945565519 -5.02543372281809E-05 0.999868945565594 -5.02543372350858E-05 0.000130242344403557 0.146477320913287 
! Gamma         50               0                50               0                
! Port Impedance         50               0                50               0                
4.46683592150963E-07           0.000142008493259914 0.151444350968102 0.999868945564007 -5.63862934839023E-05 0.999868945564055 -5.6386293552539E-05 0.000130242454279991 0.164350167215506 
! Gamma         50               0                50               0                
! Port Impedance         50               0                50               0                
5.01187233627272E-07           0.000142008622420608 0.169923252154783 0.999868945562976 -6.32664618360455E-05 0.999868945563055 -6.32664619260272E-05 0.000130242594310036 0.184403787005584 
! Gamma         50               0                50               0                
! Port Impedance         50               0                50               0                
5.62341325190349E-07           0.000142008785222351 0.190656878845149 0.99986894556217 -7.09861376961593E-05 0.999868945561875 -7.09861375911833E-05 0.000130242770271409 0.206904267016025 
! Gamma         50               0                50               0                
! Port Impedance         50               0                50               0                
6.30957344480193E-07           0.000142008988404312 0.213920331205583 0.99986894555955 -7.96477565406679E-05 0.999868945559348 -7.96477565021644E-05 0.000130242991054873 0.232150140523717 
! Gamma         50               0                50               0                
! Port Impedance         50               0                50               0                
7.07945784384138E-07           0.000142009245920066 0.240022268692148 0.99986894555806 -8.93662526468256E-05 0.999868945558179 -8.93662527511409E-05 0.000130243270380091 0.260476366348814 
! Gamma         50               0                50               0                
! Port Impedance         50               0                50               0                
7.94328234724281E-07           0.000142009570206453 0.269309001092771 0.999868945555933 -0.000100270584785019 0.999868945556087 -0.000100270584579681 0.000130243622047011 0.292258759671291 
! Gamma         50               0                50               0                
! Port Impedance         50               0                50               0                
8.91250938133746E-07           0.000142009976672333 0.302169094456761 0.999868945551819 -0.000112505446110015 0.99986894555182 -0.000112505446036057 0.000130244062534539 0.327918983151444 
! Gamma         50               0                50               0                
! Port Impedance         50               0                50               0                
1E-06                          0.000142010490473553 0.339038475990856 0.99986894554856 -0.000126233186728141 0.999868945548503 -0.000126233186550809 0.000130244619793733 0.367930094286436 
! Gamma         50               0                50               0                
! Port Impedance         50               0                50               0                
1.12201845430196E-06           0.00014201113675721 0.380406270396154 0.999868945544055 -0.000141635964570053 0.999868945543836 -0.000141635964398013 0.000130245320258471 0.41282287026326 
! Gamma         50               0                50               0                
! Port Impedance         50               0                50               0                
1.25892541179417E-06           0.000142011948074338 0.42682122427318 0.999868945536229 -0.000158918165908832 0.999868945536196 -0.00015891816578473 0.00013024620047554 0.463192780107437 
! Gamma         50               0                50               0                
! Port Impedance         50               0                50               0                
1.41253754462275E-06           0.000142012972993877 0.478898976686729 0.999868945529128 -0.000178309114107922 0.999868945529062 -0.000178309113737848 0.000130247311669877 0.519707877894111 
! Gamma         50               0                50               0                
! Port Impedance         50               0                50               0                
1.58489319246111E-06           0.000142014260992124 0.537330225112411 0.999868945518885 -0.000200066116741935 0.999868945519177 -0.000200066116649132 0.000130248708726583 0.583117631716334 
! Gamma         50               0                50               0                
! Port Impedance         50               0                50               0                
1.77827941003892E-06           0.000142015882905089 0.602889826186724 0.99986894550594 -0.000224477873576625 0.999868945505859 -0.000224477873280913 0.000130250467332703 0.654262831169409 
! Gamma         50               0                50               0                
! Port Impedance         50               0                50               0                
1.99526231496888E-06           0.000142017925512754 0.676447005748223 0.999868945490571 -0.000251868314168983 0.999868945490472 -0.000251868314983933 0.000130252682284105 0.734086606723885 
! Gamma         50               0                50               0                
! Port Impedance         50               0                50               0                
2.23872113856834E-06           0.000142020495556421 0.758976839219535 0.999868945469973 -0.000282600894420489 0.99986894547017 -0.000282600894561688 0.000130255469694606 0.823646919188565 
! Gamma         50               0                50               0                
! Port Impedance         50               0                50               0                
2.51188643150958E-06           0.000142023732195701 0.851573031537968 0.999868945444537 -0.000317083416443417 0.999868945444695 -0.000317083417407599 0.00013025897917666 0.924130351520996 
! Gamma         50               0                50               0                
! Port Impedance         50               0                50               0                
2.81838293126445E-06           0.00014202780734342 0.955462312082373 0.999868945413548 -0.000355773440454368 0.999868945413615 -0.000355773440025708 0.000130263397785933 1.03686775501127 
! Gamma         50               0                50               0                
! Port Impedance         50               0                50               0                
3.16227766016838E-06           0.000142032936331467 1.07202044644786 0.999868945373429 -0.000399184359543325 0.999868945373573 -0.000399184360763965 0.00013026895958797 1.1633514751685  
! Gamma         50               0                50               0                
! Port Impedance         50               0                50               0                
3.54813389233575E-06           0.00014203939233778 1.20279017728494 0.999868945322209 -0.000447892206559719 0.999868945322115 -0.000447892206389579 0.000130275960379424 1.30525486179532 
! Gamma         50               0                50               0                
! Port Impedance         50               0                50               0                
3.98107170553497E-06           0.000142047521308701 1.3495011028656  0.999868945258975 -0.00050254330809374 0.999868945258709 -0.000502543307007572 0.000130284774699047 1.46445367669158 
! Gamma         50               0                50               0                
! Port Impedance         50               0                50               0                
4.46683592150963E-06           0.000142057753844029 1.51409213616221 0.999868945179022 -0.000563862852402625 0.999868945178884 -0.000563862852351608 0.000130295869996623 1.64305026898963 
! Gamma         50               0                50               0                
! Port Impedance         50               0                50               0                
5.01187233627272E-06           0.000142070634422461 1.69873630861801 0.999868945078316 -0.000632664495935899 0.99986894507807 -0.000632664495165067 0.000130309836487618 1.84340039888304 
! Gamma         50               0                50               0                
! Port Impedance         50               0                50               0                
5.62341325190349E-06           0.000142086847723713 1.90586794633636 0.999868944950853 -0.000709861208478193 0.999868944950921 -0.000709861209630054 0.000130327417095568 2.06814228667596 
! Gamma         50               0                50               0                
! Port Impedance         50               0                50               0                
6.30957344480193E-06           0.000142107257997017 2.13821353835884 0.999868944791569 -0.000796477322218785 0.999868944791309 -0.000796477320873839 0.000130349546872324 2.32022989940929 
! Gamma         50               0                50               0                
! Port Impedance         50               0                50               0                
7.07945784384138E-06           0.000142132947533485 2.39882488241442 0.999868944590107 -0.000893662187206604 0.999868944590063 -0.000893662184653118 0.00013037740055214 2.60296810038606 
! Gamma         50               0                50               0                
! Port Impedance         50               0                50               0                