! Touchstone file exported from HFSS 2024.2.0
!        File:           C:/00_Asenjo/00_Project/Ketupa/simulation/Ansys_HFSS/HFSS_Projects/Inset_Fed_Elliptical_Patch_Antenna.aedt
!        Generated:      09:40:36 PM Jul 14, 2025
!        Design:         Elliptical_Patch_Antenna
!        Project:        Inset_Fed_Elliptical_Patch_Antenna
!        Setup:          Setup1
!        Solution:       Sweep
!
! Variables:
!        Airbox_dist = 40.7881mm
!        FeedLength = 32.823mm
!        FeedWidth = 3.959mm
!        InsetDistance = 11.05mm
!        InsetGap = 1.979mm
!        VirtualObject_dist = 12.2364mm
!        patchX = 43.29mm
!        patchY = 34.82mm
!        subH = 62mil
!        subX = 74.4mm
!        subY = 105.49mm
!
# GHz S MA R 50.000000
! Terminal data exported
! Port[1] = patch_T1
0                              0.999989013594814 0                
! Gamma         50               0                
! Port Impedance         50               0                
1E-09                          0.999989013594814 -9.71292746099675E-07 
! Gamma         50               0                
! Port Impedance         50               0                
1.12201845430196E-09           0.999989013594814 -1.08980838565347E-06 
! Gamma         50               0                
! Port Impedance         50               0                
1.25892541179417E-09           0.999989013594813 -1.22278512035622E-06 
! Gamma         50               0                
! Port Impedance         50               0                
1.41253754462275E-09           0.999989013594814 -1.37198747068553E-06 
! Gamma         50               0                
! Port Impedance         50               0                
1.58489319246111E-09           0.999989013594814 -1.53939526118024E-06 
! Gamma         50               0                
! Port Impedance         50               0                
1.77827941003892E-09           0.999989013594814 -1.72722989150922E-06 
! Gamma         50               0                
! Port Impedance         50               0                
1.99526231496888E-09           0.999989013594814 -1.93798381309532E-06 
! Gamma         50               0                
! Port Impedance         50               0                
2.23872113856834E-09           0.999989013594814 -2.17445360243143E-06 
! Gamma         50               0                
! Port Impedance         50               0                
2.51188643150958E-09           0.999989013594814 -2.43977706995145E-06 
! Gamma         50               0                
! Port Impedance         50               0                
2.81838293126445E-09           0.999989013594813 -2.7374748968683E-06 
! Gamma         50               0                
! Port Impedance         50               0                
3.16227766016838E-09           0.999989013594814 -3.0714973524746E-06 
! Gamma         50               0                
! Port Impedance         50               0                
3.54813389233575E-09           0.999989013594814 -3.44627671181613E-06 
! Gamma         50               0                
! Port Impedance         50               0                
3.98107170553497E-09           0.999989013594814 -3.86678606928878E-06 
! Gamma         50               0                
! Port Impedance         50               0                
4.46683592150963E-09           0.999989013594814 -4.33860532857976E-06 
! Gamma         50               0                
! Port Impedance         50               0                
5.01187233627272E-09           0.999989013594814 -4.86799524459933E-06 
! Gamma         50               0                
! Port Impedance         50               0                
5.62341325190349E-09           0.999989013594814 -5.46198049989465E-06 
! Gamma         50               0                
! Port Impedance         50               0                
6.30957344480193E-09           0.999989013594813 -6.12844291791925E-06 
! Gamma         50               0                
! Port Impedance         50               0                
7.07945784384138E-09           0.999989013594814 -6.87622605004158E-06 
! Gamma         50               0                
! Port Impedance         50               0                
7.94328234724282E-09           0.999989013594813 -7.71525252409854E-06 
! Gamma         50               0                
! Port Impedance         50               0                
8.91250938133745E-09           0.999989013594813 -8.65665571163836E-06 
! Gamma         50               0                
! Port Impedance         50               0                
1E-08                          0.999989013594813 -9.71292746099674E-06 
! Gamma         50               0                
! Port Impedance         50               0                
1.12201845430196E-08           0.999989013594813 -1.08980838565346E-05 
! Gamma         50               0                
! Port Impedance         50               0                
1.25892541179417E-08           0.999989013594813 -1.22278512035622E-05 
! Gamma         50               0                
! Port Impedance         50               0                
1.41253754462275E-08           0.999989013594813 -1.37198747068552E-05 
! Gamma         50               0                
! Port Impedance         50               0                
1.58489319246111E-08           0.999989013594813 -1.53939526118023E-05 
! Gamma         50               0                
! Port Impedance         50               0                
1.77827941003892E-08           0.999989013594813 -1.72722989150921E-05 
! Gamma         50               0                
! Port Impedance         50               0                
1.99526231496888E-08           0.999989013594812 -1.93798381309531E-05 
! Gamma         50               0                
! Port Impedance         50               0                
2.23872113856834E-08           0.999989013594812 -2.17445360243142E-05 
! Gamma         50               0                
! Port Impedance         50               0                
2.51188643150958E-08           0.999989013594812 -2.43977706995143E-05 
! Gamma         50               0                
! Port Impedance         50               0                
2.81838293126445E-08           0.999989013594811 -2.73747489686827E-05 
! Gamma         50               0                
! Port Impedance         50               0                
3.16227766016838E-08           0.99998901359481 -3.07149735247455E-05 
! Gamma         50               0                
! Port Impedance         50               0                
3.54813389233575E-08           0.999989013594809 -3.44627671181605E-05 
! Gamma         50               0                
! Port Impedance         50               0                
3.98107170553497E-08           0.999989013594808 -3.86678606928868E-05 
! Gamma         50               0                
! Port Impedance         50               0                
4.46683592150963E-08           0.999989013594807 -4.33860532857962E-05 
! Gamma         50               0                
! Port Impedance         50               0                
5.01187233627272E-08           0.999989013594805 -4.86799524459912E-05 
! Gamma         50               0                
! Port Impedance         50               0                
5.62341325190349E-08           0.999989013594803 -5.46198049989436E-05 
! Gamma         50               0                
! Port Impedance         50               0                
6.30957344480193E-08           0.9999890135948  -6.12844291791885E-05 
! Gamma         50               0                
! Port Impedance         50               0                
7.07945784384138E-08           0.999989013594797 -6.87622605004101E-05 
! Gamma         50               0                
! Port Impedance         50               0                
7.94328234724281E-08           0.999989013594792 -7.71525252409774E-05 
! Gamma         50               0                
! Port Impedance         50               0                
8.91250938133746E-08           0.999989013594787 -8.65665571163723E-05 
! Gamma         50               0                
! Port Impedance         50               0                
1E-07                          0.99998901359478 -9.71292746099514E-05 
! Gamma         50               0                
! Port Impedance         50               0                
1.12201845430196E-07           0.999989013594772 -0.000108980838565324 
! Gamma         50               0                
! Port Impedance         50               0                
1.25892541179417E-07           0.999989013594761 -0.00012227851203559 
! Gamma         50               0                
! Port Impedance         50               0                
1.41253754462275E-07           0.999989013594747 -0.000137198747068507 
! Gamma         50               0                
! Port Impedance         50               0                
1.58489319246111E-07           0.99998901359473 -0.000153939526117959 
! Gamma         50               0                
! Port Impedance         50               0                
1.77827941003892E-07           0.999989013594708 -0.000172722989150831 
! Gamma         50               0                
! Port Impedance         50               0                
1.99526231496888E-07           0.999989013594681 -0.000193798381309403 
! Gamma         50               0                
! Port Impedance         50               0                
2.23872113856834E-07           0.999989013594647 -0.000217445360242962 
! Gamma         50               0                
! Port Impedance         50               0                
2.51188643150958E-07           0.999989013594604 -0.000243977706994889 
! Gamma         50               0                
! Port Impedance         50               0                
2.81838293126445E-07           0.99998901359455 -0.000273747489686468 
! Gamma         50               0                
! Port Impedance         50               0                
3.16227766016838E-07           0.999989013594481 -0.000307149735246948 
! Gamma         50               0                
! Port Impedance         50               0                
3.54813389233575E-07           0.999989013594395 -0.000344627671180889 
! Gamma         50               0                
! Port Impedance         50               0                
3.98107170553497E-07           0.999989013594287 -0.000386678606927856 
! Gamma         50               0                
! Port Impedance         50               0                
4.46683592150963E-07           0.999989013594151 -0.000433860532856533 
! Gamma         50               0                
! Port Impedance         50               0                
5.01187233627272E-07           0.999989013593979 -0.000486799524457894 
! Gamma         50               0                
! Port Impedance         50               0                
5.62341325190349E-07           0.999989013593763 -0.000546198049986584 
! Gamma         50               0                
! Port Impedance         50               0                
6.30957344480193E-07           0.999989013593491 -0.000612844291787857 
! Gamma         50               0                
! Port Impedance         50               0                
7.07945784384138E-07           0.999989013593149 -0.000687622604998411 
! Gamma         50               0                
! Port Impedance         50               0                
7.94328234724281E-07           0.999989013592718 -0.000771525252401736 
! Gamma         50               0                
! Port Impedance         50               0                
8.91250938133746E-07           0.999989013592176 -0.00086566557115237 
! Gamma         50               0                
! Port Impedance         50               0                
1E-06                          0.999989013591493 -0.000971292746083477 
! Gamma         50               0                
! Port Impedance         50               0                
1.12201845430196E-06           0.999989013590633 -0.00108980838563059 
! Gamma         50               0                
! Port Impedance         50               0                
1.25892541179417E-06           0.99998901358955 -0.0012227851203239 
! Gamma         50               0                
! Port Impedance         50               0                
1.41253754462275E-06           0.999989013588187 -0.00137198747063987 
! Gamma         50               0                
! Port Impedance         50               0                
1.58489319246111E-06           0.999989013586472 -0.00153939526111575 
! Gamma         50               0                
! Port Impedance         50               0                
1.77827941003892E-06           0.999989013584312 -0.00172722989141812 
! Gamma         50               0                
! Port Impedance         50               0                
1.99526231496888E-06           0.999989013581593 -0.00193798381296665 
! Gamma         50               0                
! Port Impedance         50               0                
2.23872113856834E-06           0.999989013578169 -0.00217445360224968 
! Gamma         50               0                
! Port Impedance         50               0                
2.51188643150958E-06           0.99998901357386 -0.00243977706969472 
! Gamma         50               0                
! Port Impedance         50               0                
2.81838293126445E-06           0.999989013568434 -0.00273747489650566 
! Gamma         50               0                
! Port Impedance         50               0                
3.16227766016838E-06           0.999989013561604 -0.00307149735196236 
! Gamma         50               0                
! Port Impedance         50               0                
3.54813389233575E-06           0.999989013553005 -0.00344627671109256 
! Gamma         50               0                
! Port Impedance         50               0                
3.98107170553497E-06           0.99998901354218 -0.00386678606826672 
! Gamma         50               0                
! Port Impedance         50               0                
4.46683592150963E-06           0.999989013528552 -0.00433860532713606 
! Gamma         50               0                
! Port Impedance         50               0                
5.01187233627272E-06           0.999989013511395 -0.00486799524256005 
! Gamma         50               0                
! Port Impedance         50               0                
5.62341325190349E-06           0.999989013489796 -0.00546198049701409 
! Gamma         50               0                
! Port Impedance         50               0                
6.30957344480193E-06           0.999989013462605 -0.00612844291385035 
! Gamma         50               0                
! Port Impedance         50               0                
7.07945784384138E-06           0.999989013428372 -0.0068762260442941 
! Gamma         50               0                
! Port Impedance         50               0                
7.94328234724281E-06           0.999989013385276 -0.00771525251598001 
! Gamma         50               0                
! Port Impedance         50               0                
8.91250938133746E-06           0.999989013331022 -0.00865665570017064 
! Gamma         50               0                
! Port Impedance         50               0                
1E-05                          0.999989013262719 -0.00971292744479815 
! Gamma         50               0                
! Port Impedance         50               0                
1.12201845430196E-05           0.999989013176732 -0.0108980838336535 
! Gamma         50               0                
! Port Impedance         50               0                
1.25892541179417E-05           0.99998901306848 -0.0122278511712417 
! Gamma         50               0                
! Port Impedance         50               0                
1.41253754462276E-05           0.999989012932198 -0.0137198746612014 
! Gamma         50               0                
! Port Impedance         50               0                
1.58489319246111E-05           0.999989012760631 -0.0153939525473146 
! Gamma         50               0                
! Port Impedance         50               0                
1.77827941003892E-05           0.999989012544639 -0.0172722988240007 
! Gamma         50               0                
! Port Impedance         50               0                
1.99526231496888E-05           0.999989012272722 -0.0193798380022831 
! Gamma         50               0                
! Port Impedance         50               0                
2.23872113856834E-05           0.999989011930398 -0.021744535842563 
! Gamma         50               0                
! Port Impedance         50               0                
2.51188643150958E-05           0.999989011499438 -0.024397770442784 
! Gamma         50               0                
! Port Impedance         50               0                
2.81838293126445E-05           0.999989010956892 -0.0273747486060415 
! Gamma         50               0                
! Port Impedance         50               0                
3.16227766016838E-05           0.999989010273864 -0.0307149730125013 
! Gamma         50               0                
! Port Impedance         50               0                
3.54813389233575E-05           0.999989009413983 -0.0344627663945964 
! Gamma         50               0                
! Port Impedance         50               0                
3.98107170553497E-05           0.999989008331456 -0.0386678596708254 
! Gamma         50               0                
! Port Impedance         50               0                
4.46683592150963E-05           0.999989006968632 -0.0433860518420963 
! Gamma         50               0                
! Port Impedance         50               0                
5.01187233627273E-05           0.999989005252934 -0.0486799504067113 
! Gamma         50               0                
! Port Impedance         50               0                
5.62341325190349E-05           0.999989003092991 -0.0546198021183847 
! Gamma         50               0                
! Port Impedance         50               0                
6.30957344480193E-05           0.999989000373774 -0.061284425110292 
! Gamma         50               0                
! Port Impedance         50               0                
7.07945784384137E-05           0.999988996950466 -0.0687622547529428 
! Gamma         50               0                
! Port Impedance         50               0                
7.94328234724282E-05           0.99998899264075 -0.0771525171224677 
! Gamma         50               0                
! Port Impedance         50               0                
8.91250938133746E-05           0.999988987215098 -0.0865665456486785 
! Gamma         50               0                
! Port Impedance         50               0                
0.0001                         0.99998898038454 -0.0971292584114142 
! Gamma         50               0                
! Port Impedance         50               0                
0.000112201845430196           0.999988971785272 -0.108980815684301 
! Gamma         50               0                
! Port Impedance         50               0                
0.000125892541179417           0.999988960959269 -0.12227847971532 
! Gamma         50               0                
! Port Impedance         50               0                
0.000141253754462276           0.999988947329876 -0.137198701414974 
! Gamma         50               0                
! Port Impedance         50               0                
0.000158489319246111           0.999988930171069 -0.153939461630738 
! Gamma         50               0                
! Port Impedance         50               0                
0.000177827941003892           0.99998890856875 -0.172722898060401 
! Gamma         50               0                
! Port Impedance         50               0                
0.000199526231496888           0.999988881371995 -0.193798252641093 
! Gamma         50               0                
! Port Impedance         50               0                
0.000223872113856834           0.999988847131647 -0.217445178494751 
! Gamma         50               0                
! Port Impedance         50               0                
0.000251188643150958           0.99998880402297 -0.243977450269799 
! Gamma         50               0                
! Port Impedance         50               0                
0.000281838293126446           0.99998874974819 -0.273747127054563 
! Gamma         50               0                
! Port Impedance         50               0                
0.000316227766016838           0.999988681413679 -0.307149223019186 
! Gamma         50               0                
! Port Impedance         50               0                
0.000354813389233575           0.999988595375148 -0.344626947646023 
! Gamma         50               0                
! Port Impedance         50               0                
0.000398107170553497           0.999988487042446 -0.386677584918505 
! Gamma         50               0                
! Port Impedance         50               0                
0.000446683592150963           0.999988350633335 -0.433859089249179 
! Gamma         50               0                
! Port Impedance         50               0                
0.000501187233627273           0.999988178862724 -0.486797485342494 
! Gamma         50               0                
! Port Impedance         50               0                
0.000562341325190349           0.999987962550221 -0.54619516972032 
! Gamma         50               0                
! Port Impedance         50               0                
0.000630957344480193           0.999987690124134 -0.61284022341173 
! Gamma         50               0                
! Port Impedance         50               0                
0.000707945784384137           0.999987346993946 -0.687616858456633 
! Gamma         50               0                
! Port Impedance         50               0                
0.000794328234724282           0.999986914755442 -0.771517135537591 
! Gamma         50               0                
! Port Impedance         50               0                
0.000891250938133746           0.999986370182292 -0.865654106384944 
! Gamma         50               0                
! Port Impedance         50               0                
0.001                          0.999985683478441 -0.97127655259583 
! Gamma         0                0                
! Port Impedance         50               0                
0.00112201845430196            0.999984822887667 -1.08978551403548 
! Gamma         0                0                
! Port Impedance         50               0                
0.00125892541179417            0.999983750865747 -1.22275281609228 
! Gamma         0                0                
! Port Impedance         50               0                
0.00141253754462276            0.999982418983146 -1.37194184307198 
! Gamma         0                0                
! Port Impedance         50               0                
0.00158489319246111            0.99998076963559 -1.539330814743  
! Gamma         0                0                
! Port Impedance         50               0                
0.00177827941003892            0.999978735338095 -1.72713886417577 
! Gamma         0                0                
! Port Impedance         50               0                
0.00199526231496888            0.999976238555056 -1.93785524148673 
! Gamma         0                0                
! Port Impedance         50               0                
0.00223872113856834            0.99997319242061 -2.1742720018126 
! Gamma         0                0                
! Port Impedance         50               0                
0.00251188643150958            0.999969502780053 -2.43952057006599 
! Gamma         0                0                
! Port Impedance         50               0                
0.00281838293126445            0.999965071999401 -2.73711260952873 
! Gamma         0                0                
! Port Impedance         50               0                
0.00316227766016838            0.999959804877082 -3.07098565456878 
! Gamma         0                0                
! Port Impedance         50               0                
0.00354813389233575            0.999953616665704 -3.44555399733113 
! Gamma         0                0                
! Port Impedance         50               0                
0.00398107170553497            0.999946442608658 -3.86576534057561 
! Gamma         0                0                
! Port Impedance         50               0                
0.00446683592150963            0.999938247536922 -4.33716373865623 
! Gamma         0                0                
! Port Impedance         50               0                
0.00501187233627272            0.999929033140608 -4.86595933832779 
! Gamma         0                0                
! Port Impedance         50               0                
0.00562341325190349            0.999918839911837 -5.45910538969003 
! Gamma         0                0                
! Port Impedance         50               0                
0.00630957344480193            0.99990774094124 -6.12438290960189 
! Gamma         0                0                
! Port Impedance         50               0                
0.00707945784384137            0.999895826070443 -6.87049322345993 
! Gamma         0                0                
! Port Impedance         50               0                
0.00794328234724282            0.999883177196671 -7.70715835586076 
! Gamma         0                0                
! Port Impedance         50               0                
0.00891250938133746            0.999869838013338 -8.64522884431986 
! Gamma         0                0                
! Port Impedance         50               0                
0.01                           0.999855783064193 -9.69679795563475 
! Gamma         0                0                
! Port Impedance         50               0                
0.0112201845430196             0.999840890940497 -10.8753204148344 
! Gamma         0                0                
! Port Impedance         50               0                
0.0125892541179417             0.999824924870446 -12.1957325108794 
! Gamma         0                0                
! Port Impedance         50               0                
0.0141253754462276             0.999807521756073 -13.6745686918377 
! Gamma         0                0                
! Port Impedance         50               0                
0.0158489319246111             0.999788189063893 -15.3300673452268 
! Gamma         0                0                
! Port Impedance         50               0                
0.0177827941003892             0.999766308657979 -17.1822551900802 
! Gamma         0                0                
! Port Impedance         50               0                
0.0199526231496888             0.999741147856287 -19.2529953886959 
! Gamma         0                0                
! Port Impedance         50               0                
0.0223872113856834             0.999711880427217 -21.5659789476081 
! Gamma         0                0                
! Port Impedance         50               0                
0.0251188643150958             0.99967762349683 -24.1466321513515 
! Gamma         0                0                
! Port Impedance         50               0                
0.0281838293126445             0.999637499936115 -27.0219048291893 
! Gamma         0                0                
! Port Impedance         50               0                
0.0316227766016838             0.999590739044227 -30.2198958223357 
! Gamma         0                0                
! Port Impedance         50               0                
0.0354813389233575             0.999536829808376 -33.7692645084325 
! Gamma         0                0                
! Port Impedance         50               0                
0.0398107170553497             0.999475737707716 -37.6983732640118 
! Gamma         0                0                
! Port Impedance         50               0                
0.0446683592150963             0.999408182200286 -42.0341095438352 
! Gamma         0                0                
! Port Impedance         50               0                
0.0501187233627272             0.999335937829972 -46.8003538853046 
! Gamma         0                0                
! Port Impedance         50               0                
0.0562341325190349             0.999262052263387 -52.0160989663104 
! Gamma         0                0                
! Port Impedance         50               0                
0.0630957344480193             0.999190749763604 -57.6932915855713 
! Gamma         0                0                
! Port Impedance         50               0                
0.0707945784384137             0.999126588386515 -63.8345661234   