! Touchstone file exported from HFSS 2024.2.0
!        File:           C:/00_Asenjo/00_Project/Ketupa/simulation/Ansys_HFSS/HFSS_Projects/Inset_Fed_Rectangular_Patch_Antenna.aedt
!        Generated:      04:22:03 PM Jun 27, 2025
!        Design:         Rectangular_Patch_Antenna
!        Project:        Inset_Fed_Rectangular_Patch_Antenna
!        Setup:          Setup1
!        Solution:       Sweep
!
! Variables:
!        Airbox_dist = 9.9931mm
!        FeedLength = 17.5mm
!        FeedWidth = 3.2mm
!        InsetDistance = 9.5mm
!        InsetGap = 4mm
!        VirtualObject_dist = 2.9979mm
!        patchX = 41mm
!        patchY = 32.5mm
!        subH = 1.5mm
!        subX = 70mm
!        subY = 70mm
!
# GHz S MA R 50.000000
! Terminal data exported
! Port[1] = patch_T1
0                              0.999987563342756 0                
! Gamma         50               0                
! Port Impedance         50               0                
1E-09                          0.999987563342756 -1.10400809976279E-06 
! Gamma         50               0                
! Port Impedance         50               0                
1.12201845430196E-09           0.999987563342756 -1.2387174616327E-06 
! Gamma         50               0                
! Port Impedance         50               0                
1.25892541179417E-09           0.999987563342756 -1.38986385161797E-06 
! Gamma         50               0                
! Port Impedance         50               0                
1.41253754462275E-09           0.999987563342757 -1.55945289048257E-06 
! Gamma         50               0                
! Port Impedance         50               0                
1.58489319246111E-09           0.999987563342757 -1.74973492173598E-06 
! Gamma         50               0                
! Port Impedance         50               0                
1.77827941003892E-09           0.999987563342757 -1.96323487232437E-06 
! Gamma         50               0                
! Port Impedance         50               0                
1.99526231496888E-09           0.999987563342756 -2.20278575687711E-06 
! Gamma         50               0                
! Port Impedance         50               0                
2.23872113856834E-09           0.999987563342756 -2.47156627008963E-06 
! Gamma         50               0                
! Port Impedance         50               0                
2.51188643150958E-09           0.999987563342756 -2.77314296607084E-06 
! Gamma         50               0                
! Port Impedance         50               0                
2.81838293126445E-09           0.999987563342756 -3.11151758434916E-06 
! Gamma         50               0                
! Port Impedance         50               0                
3.16227766016838E-09           0.999987563342756 -3.49118015052483E-06 
! Gamma         50               0                
! Port Impedance         50               0                
3.54813389233575E-09           0.999987563342756 -3.91716855618156E-06 
! Gamma         50               0                
! Port Impedance         50               0                
3.98107170553497E-09           0.999987563342756 -4.39513540864709E-06 
! Gamma         50               0                
! Port Impedance         50               0                
4.46683592150963E-09           0.999987563342756 -4.93142303765804E-06 
! Gamma         50               0                
! Port Impedance         50               0                
5.01187233627272E-09           0.999987563342756 -5.53314765422216E-06 
! Gamma         50               0                
! Port Impedance         50               0                
5.62341325190349E-09           0.999987563342756 -6.20829377841488E-06 
! Gamma         50               0                
! Port Impedance         50               0                
6.30957344480193E-09           0.999987563342756 -6.96582018910956E-06 
! Gamma         50               0                
! Port Impedance         50               0                
7.07945784384138E-09           0.999987563342756 -7.81577880153012E-06 
! Gamma         50               0                
! Port Impedance         50               0                
7.94328234724282E-09           0.999987563342756 -8.76944805005887E-06 
! Gamma         50               0                
! Port Impedance         50               0                
8.91250938133745E-09           0.999987563342756 -9.83948254620842E-06 
! Gamma         50               0                
! Port Impedance         50               0                
1E-08                          0.999987563342756 -1.10400809976279E-05 
! Gamma         50               0                
! Port Impedance         50               0                
1.12201845430196E-08           0.999987563342756 -1.23871746163269E-05 
! Gamma         50               0                
! Port Impedance         50               0                
1.25892541179417E-08           0.999987563342756 -1.38986385161797E-05 
! Gamma         50               0                
! Port Impedance         50               0                
1.41253754462275E-08           0.999987563342756 -1.55945289048256E-05 
! Gamma         50               0                
! Port Impedance         50               0                
1.58489319246111E-08           0.999987563342755 -1.74973492173597E-05 
! Gamma         50               0                
! Port Impedance         50               0                
1.77827941003892E-08           0.999987563342755 -1.96323487232436E-05 
! Gamma         50               0                
! Port Impedance         50               0                
1.99526231496888E-08           0.999987563342755 -2.20278575687708E-05 
! Gamma         50               0                
! Port Impedance         50               0                
2.23872113856834E-08           0.999987563342754 -2.4715662700896E-05 
! Gamma         50               0                
! Port Impedance         50               0                
2.51188643150958E-08           0.999987563342754 -2.77314296607079E-05 
! Gamma         50               0                
! Port Impedance         50               0                
2.81838293126445E-08           0.999987563342753 -3.1115175843491E-05 
! Gamma         50               0                
! Port Impedance         50               0                
3.16227766016838E-08           0.999987563342752 -3.49118015052474E-05 
! Gamma         50               0                
! Port Impedance         50               0                
3.54813389233575E-08           0.999987563342751 -3.91716855618144E-05 
! Gamma         50               0                
! Port Impedance         50               0                
3.98107170553497E-08           0.99998756334275 -4.39513540864692E-05 
! Gamma         50               0                
! Port Impedance         50               0                
4.46683592150963E-08           0.999987563342749 -4.93142303765779E-05 
! Gamma         50               0                
! Port Impedance         50               0                
5.01187233627272E-08           0.999987563342746 -5.53314765422182E-05 
! Gamma         50               0                
! Port Impedance         50               0                
5.62341325190349E-08           0.999987563342744 -6.2082937784144E-05 
! Gamma         50               0                
! Port Impedance         50               0                
6.30957344480193E-08           0.999987563342741 -6.96582018910888E-05 
! Gamma         50               0                
! Port Impedance         50               0                
7.07945784384138E-08           0.999987563342737 -7.81577880152915E-05 
! Gamma         50               0                
! Port Impedance         50               0                
7.94328234724281E-08           0.999987563342731 -8.76944805005751E-05 
! Gamma         50               0                
! Port Impedance         50               0                
8.91250938133746E-08           0.999987563342725 -9.83948254620649E-05 
! Gamma         50               0                
! Port Impedance         50               0                
1E-07                          0.999987563342717 -0.000110400809976252 
! Gamma         50               0                
! Port Impedance         50               0                
1.12201845430196E-07           0.999987563342706 -0.000123871746163231 
! Gamma         50               0                
! Port Impedance         50               0                
1.25892541179417E-07           0.999987563342694 -0.000138986385161742 
! Gamma         50               0                
! Port Impedance         50               0                
1.41253754462275E-07           0.999987563342677 -0.000155945289048179 
! Gamma         50               0                
! Port Impedance         50               0                
1.58489319246111E-07           0.999987563342657 -0.000174973492173489 
! Gamma         50               0                
! Port Impedance         50               0                
1.77827941003892E-07           0.999987563342631 -0.000196323487232282 
! Gamma         50               0                
! Port Impedance         50               0                
1.99526231496888E-07           0.999987563342599 -0.000220278575687492 
! Gamma         50               0                
! Port Impedance         50               0                
2.23872113856834E-07           0.999987563342558 -0.000247156627008654 
! Gamma         50               0                
! Port Impedance         50               0                
2.51188643150958E-07           0.999987563342507 -0.000277314296606647 
! Gamma         50               0                
! Port Impedance         50               0                
2.81838293126445E-07           0.999987563342442 -0.0003111517584343 
! Gamma         50               0                
! Port Impedance         50               0                
3.16227766016838E-07           0.999987563342361 -0.000349118015051611 
! Gamma         50               0                
! Port Impedance         50               0                
3.54813389233575E-07           0.999987563342258 -0.000391716855616926 
! Gamma         50               0                
! Port Impedance         50               0                
3.98107170553497E-07           0.999987563342129 -0.000439513540862971 
! Gamma         50               0                
! Port Impedance         50               0                
4.46683592150963E-07           0.999987563341967 -0.000493142303763348 
! Gamma         50               0                
! Port Impedance         50               0                
5.01187233627272E-07           0.999987563341763 -0.000553314765418748 
! Gamma         50               0                
! Port Impedance         50               0                
5.62341325190349E-07           0.999987563341506 -0.000620829377836589 
! Gamma         50               0                
! Port Impedance         50               0                
6.30957344480193E-07           0.999987563341182 -0.000696582018904036 
! Gamma         50               0                
! Port Impedance         50               0                
7.07945784384138E-07           0.999987563340774 -0.000781577880143238 
! Gamma         50               0                
! Port Impedance         50               0                
7.94328234724281E-07           0.999987563340261 -0.000876944804992081 
! Gamma         50               0                
! Port Impedance         50               0                
8.91250938133746E-07           0.999987563339615 -0.00098394825460134 
! Gamma         50               0                
! Port Impedance         50               0                
1E-06                          0.999987563338801 -0.00110400809973524 
! Gamma         50               0                
! Port Impedance         50               0                
1.12201845430196E-06           0.999987563337777 -0.00123871746159378 
! Gamma         50               0                
! Port Impedance         50               0                
1.25892541179417E-06           0.999987563336488 -0.001389863851563 
! Gamma         50               0                
! Port Impedance         50               0                
1.41253754462275E-06           0.999987563334865 -0.00155945289040492 
! Gamma         50               0                
! Port Impedance         50               0                
1.58489319246111E-06           0.999987563332822 -0.0017497349216263 
! Gamma         50               0                
! Port Impedance         50               0                
1.77827941003892E-06           0.99998756333025 -0.00196323487216945 
! Gamma         50               0                
! Port Impedance         50               0                
1.99526231496888E-06           0.999987563327011 -0.00220278575665827 
! Gamma         50               0                
! Port Impedance         50               0                
2.23872113856834E-06           0.999987563322934 -0.00247156626978052 
! Gamma         50               0                
! Port Impedance         50               0                
2.51188643150958E-06           0.999987563317802 -0.0027731429656342 
! Gamma         50               0                
! Port Impedance         50               0                
2.81838293126445E-06           0.99998756331134 -0.0031115175837324 
! Gamma         50               0                
! Port Impedance         50               0                
3.16227766016838E-06           0.999987563303205 -0.00349118014965362 
! Gamma         50               0                
! Port Impedance         50               0                
3.54813389233575E-06           0.999987563292965 -0.00391716855495095 
! Gamma         50               0                
! Port Impedance         50               0                
3.98107170553497E-06           0.999987563280073 -0.00439513540690881 
! Gamma         50               0                
! Port Impedance         50               0                
4.46683592150963E-06           0.999987563263842 -0.00493142303520265 
! Gamma         50               0                
! Port Impedance         50               0                
5.01187233627272E-06           0.999987563243409 -0.00553314765075383 
! Gamma         50               0                
! Port Impedance         50               0                
5.62341325190349E-06           0.999987563217686 -0.00620829377351574 
! Gamma         50               0                
! Port Impedance         50               0                
6.30957344480193E-06           0.999987563185302 -0.00696582018218934 
! Gamma         50               0                
! Port Impedance         50               0                
7.07945784384138E-06           0.999987563144532 -0.00781577879175505 
! Gamma         50               0                
! Port Impedance         50               0                
7.94328234724281E-06           0.999987563093207 -0.00876944803625121 
! Gamma         50               0                
! Port Impedance         50               0                
8.91250938133746E-06           0.999987563028593 -0.00983948252670458 
! Gamma         50               0                
! Port Impedance         50               0                
1E-05                          0.999987562947248 -0.011040080970078 
! Gamma         50               0                
! Port Impedance         50               0                
1.12201845430196E-05           0.99998756284484 -0.0123871745774117 
! Gamma         50               0                
! Port Impedance         50               0                
1.25892541179417E-05           0.999987562715917 -0.0138986384612104 
! Gamma         50               0                
! Port Impedance         50               0                
1.41253754462276E-05           0.999987562553613 -0.0155945288271795 
! Gamma         50               0                
! Port Impedance         50               0                
1.58489319246111E-05           0.999987562349283 -0.0174973491076816 
! Gamma         50               0                
! Port Impedance         50               0                
1.77827941003892E-05           0.999987562092047 -0.0196323485683191 
! Gamma         50               0                
! Port Impedance         50               0                
1.99526231496888E-05           0.999987561768206 -0.0220278573499342 
! Gamma         50               0                
! Port Impedance         50               0                
2.23872113856834E-05           0.999987561360514 -0.024715662391781 
! Gamma         50               0                
! Port Impedance         50               0                
2.51188643150958E-05           0.99998756084726 -0.0277314292240715 
! Gamma         50               0                
! Port Impedance         50               0                
2.81838293126445E-05           0.99998756020111 -0.0311151752267257 
! Gamma         50               0                
! Port Impedance         50               0                
3.16227766016838E-05           0.999987559387655 -0.0349118006340432 
! Gamma         50               0                
! Port Impedance         50               0                
3.54813389233575E-05           0.999987558363574 -0.0391716843312059 
! Gamma         50               0                
! Port Impedance         50               0                
3.98107170553497E-05           0.999987557074329 -0.0439513523481887 
! Gamma         50               0                
! Port Impedance         50               0                
4.46683592150963E-05           0.999987555451261 -0.0493142279211919 
! Gamma         50               0                
! Port Impedance         50               0                
5.01187233627273E-05           0.999987553407932 -0.0553314730738939 
! Gamma         50               0                
! Port Impedance         50               0                
5.62341325190349E-05           0.999987550835521 -0.062082932885007 
! Gamma         50               0                
! Port Impedance         50               0                
6.30957344480193E-05           0.999987547597028 -0.0696581949708759 
! Gamma         50               0                
! Port Impedance         50               0                
7.07945784384137E-05           0.999987543519978 -0.0781577782402349 
! Gamma         50               0                
! Port Impedance         50               0                
7.94328234724282E-05           0.999987538387228 -0.0876944666929477 
! Gamma         50               0                
! Port Impedance         50               0                
8.91250938133746E-05           0.999987531925403 -0.098394805958285 
! Gamma         50               0                
! Port Impedance         50               0                
0.0001                         0.999987523790328 -0.110400782426452 
! Gamma         50               0                
! Port Impedance         50               0                
0.000112201845430196           0.999987513548686 -0.123871707248144 
! Gamma         50               0                
! Port Impedance         50               0                
0.000125892541179417           0.999987500654923 -0.138986330192789 
! Gamma         50               0                
! Port Impedance         50               0                
0.000141253754462276           0.99998748442216 -0.155945211402593 
! Gamma         50               0                
! Port Impedance         50               0                
0.000158489319246111           0.99998746398557 -0.174973382496401 
! Gamma         50               0                
! Port Impedance         50               0                
0.000177827941003892           0.999987438256231 -0.196323332309666 
! Gamma         50               0                
! Port Impedance         50               0                
0.000199526231496888           0.99998740586302 -0.22027835685417 
! Gamma         50               0                
! Port Impedance         50               0                
0.000223872113856834           0.999987365079381 -0.247156317899599 
! Gamma         50               0                
! Port Impedance         50               0                
0.000251188643150958           0.999987313731066 -0.277313859980686 
! Gamma         50               0                
! Port Impedance         50               0                
0.000281838293126446           0.999987249079827 -0.31115114168762 
! Gamma         50               0                
! Port Impedance         50               0                
0.000316227766016838           0.99998716767679 -0.349117143880677 
! Gamma         50               0                
! Port Impedance         50               0                
0.000354813389233575           0.999987065177502 -0.391715625067555 
! Gamma         50               0                
! Port Impedance         50               0                
0.000398107170553497           0.99998693610853 -0.439511802687623 
! Gamma         50               0                
! Port Impedance         50               0                
0.000446683592150963           0.999986773572753 -0.493139848564246 
! Gamma         50               0                
! Port Impedance         50               0                
0.000501187233627273           0.999986568876945 -0.553311297426897 
! Gamma         50               0                
! Port Impedance         50               0                
0.000562341325190349           0.999986311060709 -0.620824479290702 
! Gamma         50               0                
! Port Impedance         50               0                
0.000630957344480193           0.999985986299937 -0.696575099742439 
! Gamma         50               0                
! Port Impedance         50               0                
0.000707945784384137           0.999985577150237 -0.781568106956044 
! Gamma         50               0                
! Port Impedance         50               0                
0.000794328234724282           0.999985061585653 -0.876931000688805 
! Gamma         50               0                
! Port Impedance         50               0                
0.000891250938133746           0.999984411774502 -0.983928756732677 
! Gamma         50               0                
! Port Impedance         50               0                
0.001                          0.999983592050549 -1.10398056027152 
! Gamma         0                0                
! Port Impedance         50               0                
0.00112201845430196            0.999982563872551 -1.23867856509976 
! Gamma         0                0                
! Port Impedance         50               0                
0.00125892541179417            0.999981281589125 -1.38980891367519 
! Gamma         0                0                
! Port Impedance         50               0                
0.00141253754462276            0.999979686141114 -1.55937529465403 
! Gamma         0                0                
! Port Impedance         50               0                
0.00158489319246111            0.999977706786444 -1.749625322623  
! Gamma         0                0                
! Port Impedance         50               0                
0.00177827941003892            0.999975259884507 -1.96308007026427 
! Gamma         0                0                
! Port Impedance         50               0                
0.00199526231496888            0.99997224816156 -2.20256710869137 
! Gamma         0                0                
! Port Impedance         50               0                
0.00223872113856834            0.999968560835288 -2.47125744479693 
! Gamma         0                0                
! Port Impedance         50               0                
0.00251188643150958            0.999964075073289 -2.77270677578876 
! Gamma         0                0                
! Port Impedance         50               0                
0.00281838293126445            0.999958659301032 -3.11090150965949 
! Gamma         0                0                
! Port Impedance         50               0                
0.00316227766016838            0.999952178784319 -3.49031002311868 
! Gamma         0                0                
! Port Impedance         50               0                
0.00354813389233575            0.999944503591038 -3.91593964106113 
! Gamma         0                0                
! Port Impedance         50               0                
0.00398107170553497            0.999935518397208 -4.39339981746317 
! Gamma         0                0                
! Port Impedance         50               0                
0.00446683592150963            0.99992513263052 -4.92897196735431 
! Gamma         0                0                
! Port Impedance         50               0                
0.00501187233627272            0.999913288300157 -5.52968632990885 
! Gamma         0                0                
! Port Impedance         50               0                
0.00562341325190349            0.999899961942736 -6.20340611497401 
! Gamma         0                0                
! Port Impedance         50               0                
0.00630957344480193            0.999885156997217 -6.95891897324802 
! Gamma         0                0                
! Port Impedance         50               0                
0.00707945784384137            0.999868884095091 -7.80603549748084 
! Gamma         0                0                
! Port Impedance         50               0                
0.00794328234724282            0.999851129215531 -8.75569395866284 
! Gamma         0                0                
! Port Impedance         50               0                
0.00891250938133746            0.999831812662255 -9.82006973983404 
! Gamma         0                0                
! Port Impedance         50               0                
0.01                           0.999810744098796 -11.0126868613891 
! Gamma         0                0                
! Port Impedance         50               0                
0.0112201845430196             0.999787579345997 -12.3485274793319 
! Gamma         0                0                
! Port Impedance         50               0                
0.0125892541179417             0.999761783128545 -13.8441331355709 
! Gamma         0                0                
! Port Impedance         50               0                
0.0141253754462276             0.999732599350455 -15.5176886712416 
! Gamma         0                0                
! Port Impedance         50               0                
0.0158489319246111             0.999699028189306 -17.3890758840108 
! Gamma         0                0                
! Port Impedance         50               0                
0.0177827941003892             0.999659808464122 -19.4798790276063 
! Gamma         0                0                
! Port Impedance         50               0                
0.0199526231496888             0.999613404799041 -21.8133179866375 
! Gamma         0                0                
! Port Impedance         50               0                
0.0223872113856834             0.999558001933721 -24.4140774474693 
! Gamma         0                0                
! Port Impedance         50               0                
0.0251188643150958             0.999491512758181 -27.3079920040644 
! Gamma         0                0                
! Port Impedance         50               0                
0.0281838293126445             0.999411611957476 -30.5215388803318 
! Gamma         0                0                
! Port Impedance         50               0                
0.0316227766016838             0.999315813262157 -34.0810838070796 
! Gamma         0                0                
! Port Impedance         50               0                
0.0354813389233575             0.999201614699512 -38.0118249865483 
! Gamma         0                0                
! Port Impedance         50               0                
0.0398107170553497             0.999066741728838 -42.3363902121482 
! Gamma         0                0                
! Port Impedance         50               0                
0.0446683592150963             0.998909520369602 -47.07306995518  
! Gamma         0                0                
! Port Impedance         50               0                
0.0501187233627272             0.998729407669235 -52.2337219593788 
! Gamma         0                0                
! Port Impedance         50               0                
0.0562341325190349             0.998527690525023 -57.8214655080195 
! Gamma         0                0                
! Port Impedance         50               0                
0.0630957344480193             0.99830833242683 -63.8283932674047 
! Gamma         0                0                
! Port Impedance         50               0                
0.0707945784384137             0.998078902238287 -70.2336483684971 