! Touchstone file exported from HFSS 2024.2.0
!        File:           C:/00_Asenjo/00_Project/Ketupa/simulation/Ansys_HFSS/HFSS_Projects/Planar_InvertedF_Antenna.aedt
!        Generated:      06:28:45 PM Jun 27, 2025
!        Design:         InvertedF_Antenna_wifi_2.4G
!        Project:        Planar_InvertedF_Antenna
!        Setup:          Setup1
!        Solution:       Sweep
!
! Variables:
!        Airbox_dist = 4.1638cm
!        Antenna_Offset = 0.45cm
!        Antenna_Trace_Width = 0.15cm
!        Feed_Length = 0.01cm
!        Feed_Offset = -0.5cm
!        Feed_Width = 0.15cm
!        Length1 = 2.49cm
!        Length2 = 0.8cm
!        VirtualObject_dist = 1.2491cm
!        subH = 62mil
!        subX = 5cm
!        subY = 10cm
!
# GHz S MA R 50.000000
! Terminal data exported
! Port[1] = microstrip_feed_T1
0                              0.999999999530019 180              
! Gamma         50               0                
! Port Impedance         50               0                
1E-09                          0.999999999530019 179.999999851085 
! Gamma         50               0                
! Port Impedance         50               0                
1.12201845430196E-09           0.999999999530019 179.999999832915 
! Gamma         50               0                
! Port Impedance         50               0                
1.25892541179417E-09           0.999999999530019 179.999999812528 
! Gamma         50               0                
! Port Impedance         50               0                
1.41253754462275E-09           0.999999999530019 179.999999789652 
! Gamma         50               0                
! Port Impedance         50               0                
1.58489319246111E-09           0.999999999530019 179.999999763986 
! Gamma         50               0                
! Port Impedance         50               0                
1.77827941003892E-09           0.999999999530019 179.999999735188 
! Gamma         50               0                
! Port Impedance         50               0                
1.99526231496888E-09           0.999999999530019 179.999999702876 
! Gamma         50               0                
! Port Impedance         50               0                
2.23872113856834E-09           0.999999999530019 179.999999666622 
! Gamma         50               0                
! Port Impedance         50               0                
2.51188643150958E-09           0.999999999530019 179.999999625943 
! Gamma         50               0                
! Port Impedance         50               0                
2.81838293126445E-09           0.999999999530019 179.999999580301 
! Gamma         50               0                
! Port Impedance         50               0                
3.16227766016838E-09           0.999999999530019 179.99999952909  
! Gamma         50               0                
! Port Impedance         50               0                
3.54813389233575E-09           0.999999999530019 179.999999471631 
! Gamma         50               0                
! Port Impedance         50               0                
3.98107170553497E-09           0.999999999530019 179.99999940716  
! Gamma         50               0                
! Port Impedance         50               0                
4.46683592150963E-09           0.999999999530019 179.999999334823 
! Gamma         50               0                
! Port Impedance         50               0                
5.01187233627272E-09           0.999999999530019 179.999999253659 
! Gamma         50               0                
! Port Impedance         50               0                
5.62341325190349E-09           0.999999999530019 179.999999162591 
! Gamma         50               0                
! Port Impedance         50               0                
6.30957344480193E-09           0.999999999530019 179.999999060412 
! Gamma         50               0                
! Port Impedance         50               0                
7.07945784384138E-09           0.999999999530019 179.999998945765 
! Gamma         50               0                
! Port Impedance         50               0                
7.94328234724282E-09           0.999999999530019 179.999998817129 
! Gamma         50               0                
! Port Impedance         50               0                
8.91250938133745E-09           0.999999999530019 179.999998672797 
! Gamma         50               0                
! Port Impedance         50               0                
1E-08                          0.999999999530019 179.999998510853 
! Gamma         50               0                
! Port Impedance         50               0                
1.12201845430196E-08           0.999999999530019 179.99999832915  
! Gamma         50               0                
! Port Impedance         50               0                
1.25892541179417E-08           0.999999999530019 179.999998125275 
! Gamma         50               0                
! Port Impedance         50               0                
1.41253754462275E-08           0.999999999530019 179.999997896524 
! Gamma         50               0                
! Port Impedance         50               0                
1.58489319246111E-08           0.999999999530019 179.999997639862 
! Gamma         50               0                
! Port Impedance         50               0                
1.77827941003892E-08           0.999999999530019 179.999997351881 
! Gamma         50               0                
! Port Impedance         50               0                
1.99526231496888E-08           0.999999999530019 179.999997028762 
! Gamma         50               0                
! Port Impedance         50               0                
2.23872113856834E-08           0.999999999530019 179.999996666216 
! Gamma         50               0                
! Port Impedance         50               0                
2.51188643150958E-08           0.999999999530019 179.999996259433 
! Gamma         50               0                
! Port Impedance         50               0                
2.81838293126445E-08           0.999999999530019 179.999995803014 
! Gamma         50               0                
! Port Impedance         50               0                
3.16227766016838E-08           0.999999999530019 179.999995290905 
! Gamma         50               0                
! Port Impedance         50               0                
3.54813389233575E-08           0.999999999530019 179.999994716308 
! Gamma         50               0                
! Port Impedance         50               0                
3.98107170553497E-08           0.999999999530019 179.9999940716   
! Gamma         50               0                
! Port Impedance         50               0                
4.46683592150963E-08           0.999999999530019 179.999993348226 
! Gamma         50               0                
! Port Impedance         50               0                
5.01187233627272E-08           0.999999999530019 179.999992536587 
! Gamma         50               0                
! Port Impedance         50               0                
5.62341325190349E-08           0.999999999530019 179.999991625913 
! Gamma         50               0                
! Port Impedance         50               0                
6.30957344480193E-08           0.999999999530019 179.99999060412  
! Gamma         50               0                
! Port Impedance         50               0                
7.07945784384138E-08           0.999999999530019 179.999989457649 
! Gamma         50               0                
! Port Impedance         50               0                
7.94328234724281E-08           0.999999999530019 179.999988171288 
! Gamma         50               0                
! Port Impedance         50               0                
8.91250938133746E-08           0.999999999530018 179.999986727966 
! Gamma         50               0                
! Port Impedance         50               0                
1E-07                          0.999999999530019 179.999985108533 
! Gamma         50               0                
! Port Impedance         50               0                
1.12201845430196E-07           0.999999999530019 179.9999832915   
! Gamma         50               0                
! Port Impedance         50               0                
1.25892541179417E-07           0.999999999530019 179.999981252754 
! Gamma         50               0                
! Port Impedance         50               0                
1.41253754462275E-07           0.999999999530019 179.999978965244 
! Gamma         50               0                
! Port Impedance         50               0                
1.58489319246111E-07           0.999999999530018 179.999976398616 
! Gamma         50               0                
! Port Impedance         50               0                
1.77827941003892E-07           0.999999999530018 179.999973518811 
! Gamma         50               0                
! Port Impedance         50               0                
1.99526231496888E-07           0.999999999530019 179.999970287618 
! Gamma         50               0                
! Port Impedance         50               0                
2.23872113856834E-07           0.999999999530019 179.999966662159 
! Gamma         50               0                
! Port Impedance         50               0                
2.51188643150958E-07           0.999999999530019 179.999962594327 
! Gamma         50               0                
! Port Impedance         50               0                
2.81838293126445E-07           0.999999999530018 179.999958030145 
! Gamma         50               0                
! Port Impedance         50               0                
3.16227766016838E-07           0.999999999530019 179.999952909048 
! Gamma         50               0                
! Port Impedance         50               0                
3.54813389233575E-07           0.999999999530018 179.999947163082 
! Gamma         50               0                
! Port Impedance         50               0                
3.98107170553497E-07           0.999999999530018 179.999940716003 
! Gamma         50               0                
! Port Impedance         50               0                
4.46683592150963E-07           0.999999999530018 179.999933482262 
! Gamma         50               0                
! Port Impedance         50               0                
5.01187233627272E-07           0.999999999530018 179.99992536587  
! Gamma         50               0                
! Port Impedance         50               0                
5.62341325190349E-07           0.999999999530018 179.999916259129 
! Gamma         50               0                
! Port Impedance         50               0                
6.30957344480193E-07           0.999999999530018 179.999906041197 
! Gamma         50               0                
! Port Impedance         50               0                
7.07945784384138E-07           0.999999999530018 179.999894576489 
! Gamma         50               0                
! Port Impedance         50               0                
7.94328234724281E-07           0.999999999530018 179.999881712876 
! Gamma         50               0                
! Port Impedance         50               0                
8.91250938133746E-07           0.999999999530017 179.999867279664 
! Gamma         50               0                
! Port Impedance         50               0                
1E-06                          0.999999999530017 179.999851085333 
! Gamma         50               0                
! Port Impedance         50               0                
1.12201845430196E-06           0.999999999530017 179.999832914996 
! Gamma         50               0                
! Port Impedance         50               0                
1.25892541179417E-06           0.999999999530016 179.999812527542 
! Gamma         50               0                
! Port Impedance         50               0                
1.41253754462275E-06           0.999999999530015 179.999789652442 
! Gamma         50               0                
! Port Impedance         50               0                
1.58489319246111E-06           0.999999999530014 179.999763986158 
! Gamma         50               0                
! Port Impedance         50               0                
1.77827941003892E-06           0.999999999530013 179.999735188114 
! Gamma         50               0                
! Port Impedance         50               0                
1.99526231496888E-06           0.999999999530012 179.999702876177 
! Gamma         50               0                
! Port Impedance         50               0                
2.23872113856834E-06           0.99999999953001 179.999666621588 
! Gamma         50               0                
! Port Impedance         50               0                
2.51188643150958E-06           0.999999999530008 179.999625943269 
! Gamma         50               0                
! Port Impedance         50               0                
2.81838293126445E-06           0.999999999530005 179.999580301445 
! Gamma         50               0                
! Port Impedance         50               0                
3.16227766016838E-06           0.999999999530002 179.999529090476 
! Gamma         50               0                
! Port Impedance         50               0                
3.54813389233575E-06           0.999999999529997 179.999471630824 
! Gamma         50               0                
! Port Impedance         50               0                
3.98107170553497E-06           0.999999999529992 179.999407160034 
! Gamma         50               0                
! Port Impedance         50               0                
4.46683592150963E-06           0.999999999529985 179.999334822617 
! Gamma         50               0                
! Port Impedance         50               0                
5.01187233627272E-06           0.999999999529976 179.999253658701 
! Gamma         50               0                
! Port Impedance         50               0                
5.62341325190349E-06           0.999999999529965 179.99916259129  
! Gamma         50               0                
! Port Impedance         50               0                
6.30957344480193E-06           0.999999999529951 179.999060411973 
! Gamma         50               0                
! Port Impedance         50               0                
7.07945784384138E-06           0.999999999529933 179.998945764894 
! Gamma         50               0                
! Port Impedance         50               0                
7.94328234724281E-06           0.999999999529911 179.998817128756 
! Gamma         50               0                
! Port Impedance         50               0                
8.91250938133746E-06           0.999999999529884 179.998672796636 
! Gamma         50               0                
! Port Impedance         50               0                
1E-05                          0.999999999529849 179.998510853332 
! Gamma         50               0                
! Port Impedance         50               0                
1.12201845430196E-05           0.999999999529804 179.998329149958 
! Gamma         50               0                
! Port Impedance         50               0                
1.25892541179417E-05           0.999999999529749 179.998125275418 
! Gamma         50               0                
! Port Impedance         50               0                
1.41253754462276E-05           0.999999999529679 179.997896524423 
! Gamma         50               0                
! Port Impedance         50               0                
1.58489319246111E-05           0.999999999529591 179.997639861584 
! Gamma         50               0                
! Port Impedance         50               0                
1.77827941003892E-05           0.99999999952948 179.997351881143 
! Gamma         50               0                
! Port Impedance         50               0                
1.99526231496888E-05           0.999999999529341 179.997028761773 
! Gamma         50               0                
! Port Impedance         50               0                
2.23872113856834E-05           0.999999999529166 179.996666215877 
! Gamma         50               0                
! Port Impedance         50               0                
2.51188643150958E-05           0.999999999528945 179.996259432692 
! Gamma         50               0                
! Port Impedance         50               0                
2.81838293126445E-05           0.999999999528667 179.995803014451 
! Gamma         50               0                
! Port Impedance         50               0                
3.16227766016838E-05           0.999999999528317 179.995290904762 
! Gamma         50               0                
! Port Impedance         50               0                
3.54813389233575E-05           0.999999999527877 179.994716308241 
! Gamma         50               0                
! Port Impedance         50               0                
3.98107170553497E-05           0.999999999527322 179.99407160034  
! Gamma         50               0                
! Port Impedance         50               0                
4.46683592150963E-05           0.999999999526624 179.993348226178 
! Gamma         50               0                
! Port Impedance         50               0                
5.01187233627273E-05           0.999999999525745 179.99253658702  
! Gamma         50               0                
! Port Impedance         50               0                
5.62341325190349E-05           0.999999999524638 179.991625912906 
! Gamma         50               0                
! Port Impedance         50               0                
6.30957344480193E-05           0.999999999523245 179.990604119746 
! Gamma         50               0                
! Port Impedance         50               0                
7.07945784384137E-05           0.999999999521491 179.989457648965 
! Gamma         50               0                
! Port Impedance         50               0                
7.94328234724282E-05           0.999999999519283 179.988171287594 
! Gamma         50               0                
! Port Impedance         50               0                
8.91250938133746E-05           0.999999999516503 179.986727966398 
! Gamma         50               0                
! Port Impedance         50               0                
0.0001                         0.999999999513004 179.985108533386 
! Gamma         50               0                
! Port Impedance         50               0                
0.000112201845430196           0.999999999508599 179.983291499665 
! Gamma         50               0                
! Port Impedance         50               0                
0.000125892541179417           0.999999999503052 179.981252754306 
! Gamma         50               0                
! Port Impedance         50               0                
0.000141253754462276           0.99999999949607 179.9789652444   
! Gamma         50               0                
! Port Impedance         50               0                
0.000158489319246111           0.999999999487278 179.976398616085 
! Gamma         50               0                
! Port Impedance         50               0                
0.000177827941003892           0.999999999476211 179.973518811772 
! Gamma         50               0                
! Port Impedance         50               0                
0.000199526231496888           0.999999999462277 179.970287618217 
! Gamma         50               0                
! Port Impedance         50               0                
0.000223872113856834           0.999999999444735 179.96666215946  
! Gamma         50               0                
! Port Impedance         50               0                
0.000251188643150958           0.999999999422649 179.962594327889 
! Gamma         50               0                
! Port Impedance         50               0                
0.000281838293126446           0.999999999394842 179.95803014588  
! Gamma         50               0                
! Port Impedance         50               0                
0.000316227766016838           0.999999999359832 179.952909049555 
! Gamma         50               0                
! Port Impedance         50               0                
0.000354813389233575           0.999999999315751 179.947163085137 
! Gamma         50               0                
! Port Impedance         50               0                
0.000398107170553497           0.999999999260247 179.940716007256 
! Gamma         50               0                
! Port Impedance         50               0                
0.000446683592150963           0.999999999190358 179.933482267227 
! Gamma         50               0                
! Port Impedance         50               0                
0.000501187233627273           0.99999999910235 179.925365877889 
! Gamma         50               0                
! Port Impedance         50               0                
0.000562341325190349           0.999999998991519 179.916259139927 
! Gamma         50               0                
! Port Impedance         50               0                
0.000630957344480193           0.999999998851934 179.906041212808 
! Gamma         50               0                
! Port Impedance         50               0                
0.000707945784384137           0.999999998676118 179.89457651133  
! Gamma         50               0                
! Port Impedance         50               0                
0.000794328234724282           0.999999998454636 179.881712906556 
! Gamma         50               0                
! Port Impedance         50               0                
0.000891250938133746           0.999999998175582 179.867279707235 
! Gamma         50               0                
! Port Impedance         50               0                
0.001                          0.99999999735848 179.851085394973 
! Gamma         0                0                
! Port Impedance         50               0                
0.00112201845430196            0.999999996674413 179.832915082867 
! Gamma         0                0                
! Port Impedance         50               0                
0.00125892541179417            0.99999999581322 179.812527664715 
! Gamma         0                0                
! Port Impedance         50               0                
0.00141253754462276            0.999999994729039 179.789652615698 
! Gamma         0                0                
! Port Impedance         50               0                
0.00158489319246111            0.999999993364128 179.763986403228 
! Gamma         0                0                
! Port Impedance         50               0                
0.00177827941003892            0.999999991645796 179.735188459905 
! Gamma         0                0                
! Port Impedance         50               0                
0.00199526231496888            0.999999989482526 179.70287666532  
! Gamma         0                0                
! Port Impedance         50               0                
0.00223872113856834            0.999999986759102 179.666622276848 
! Gamma         0                0                
! Port Impedance         50               0                
0.00251188643150958            0.99999998333047 179.625944242332 
! Gamma         0                0                
! Port Impedance         50               0                
0.00281838293126445            0.999999979014008 179.580302819412 
! Gamma         0                0                
! Port Impedance         50               0                
0.00316227766016838            0.999999973579793 179.529092417137 
! Gamma         0                0                
! Port Impedance         50               0                
0.00354813389233575            0.999999966738348 179.471633565322 
! Gamma         0                0                
! Port Impedance         50               0                
0.00398107170553497            0.999999958125204 179.407163905709 
! Gamma         0                0                
! Port Impedance         50               0                
0.00446683592150963            0.999999947281469 179.334828086276 
! Gamma         0                0                
! Port Impedance         50               0                
0.00501187233627272            0.999999933629341 179.253666425829 
! Gamma         0                0                
! Port Impedance         50               0                
0.00562341325190349            0.99999991644128 179.16260220024  
! Gamma         0                0                
! Port Impedance         50               0                
0.00630957344480193            0.99999989480116 179.0604273841   
! Gamma         0                0                
! Port Impedance         50               0                
0.00707945784384137            0.999999867555338 178.945786662096 
! Gamma         0                0                
! Port Impedance         50               0                
0.00794328234724282            0.999999833250997 178.817159502904 
! Gamma         0                0                
! Port Impedance         50               0                
0.00891250938133746            0.999999790058455 178.672840064734 
! Gamma         0                0                
! Port Impedance         50               0                
0.01                           0.999999735673275 178.51091467575  
! Gamma         0                0                
! Port Impedance         50               0                
0.0112201845430196             0.999999667192893 178.329236604507 
! Gamma         0                0                
! Port Impedance         50               0                
0.0125892541179417             0.999999580961155 178.125397805294 
! Gamma         0                0                
! Port Impedance         50               0                
0.0141253754462276             0.999999472372411 177.896697291278 
! Gamma         0                0                
! Port Impedance         50               0                
0.0158489319246111             0.999999335624646 177.640105754994 
! Gamma         0                0                
! Port Impedance         50               0                
0.0177827941003892             0.999999163408378 177.352226022076 
! Gamma         0                0                
! Port Impedance         50               0                
0.0199526231496888             0.99999894651455 177.029248891578 
! Gamma         0                0                
! Port Impedance         50               0                
0.0223872113856834             0.999998673340125 176.666903887011 
! Gamma         0                0                
! Port Impedance         50               0                
0.0251188643150958             0.999998329264265 176.26040441986  
! Gamma         0                0                
! Port Impedance         50               0                
0.0281838293126445             0.999997895860468 175.804386856613 
! Gamma         0                0                
! Port Impedance         50               0                
0.0316227766016838             0.999997349900169 175.292842988697 
! Gamma         0                0                
! Port Impedance         50               0                
0.0354813389233575             0.99999666209054 174.719045442379 
! Gamma         0                0                
! Port Impedance         50               0                
0.0398107170553497             0.999995795472331 174.075465647535 
! Gamma         0                0                
! Port Impedance         50               0                
0.0446683592150963             0.999994703380949 173.353684130923 
! Gamma         0                0                
! Port Impedance         50               0                
0.0501187233627272             0.999993326843071 172.544293140142 
! Gamma         0                0                
! Port Impedance         50               0                
0.0562341325190349             0.999991591237591 171.63679197872  
! Gamma         0                0                
! Port Impedance         50               0                
0.0630957344480193             0.999989401986887 170.619475995029 
! Gamma         0                0                
! Port Impedance         50               0                
0.0707945784384137             0.999986638950524 169.479320990777 
! Gamma         0                0                
! Port Impedance         50               0                
0.0794328234724282             0.999983149048649 168.201865994367 
! Gamma         0                0                
! Port Impedance         50               0                
0.0891250938133746             0.999978736411062 166.771099002974 
! Gamma         0                0                
! Port Impedance         50               0                