! Touchstone file exported from HFSS 2024.2.0
!        File:           C:/00_Asenjo/00_Project/Ketupa/HFSS/HFSS_Projects/Project1.aedt
!        Generated:      05:31:49 PM Jun 19, 2025
!        Design:         wifi_2.4G
!        Project:        Project1
!        Setup:          Setup1
!        Solution:       Sweep
!
! Variables:
!        L_50ohm = 8mm
!        L_ant = 41mm
!        L_lamda = 9.5mm
!        L_open = 4mm
!        T_HOZ_Plating = 40um
!        W_50ohm = 3.2mm
!        W_ant = 32.5mm
!        W_lamda = 3.2mm
!        W_open = 9.5mm
!        X_0 = 15mm
!        Y_0 = 15mm
!        lamda = 122mm
!        subH = 1.5mm
!        subX = 70mm
!        subY = 70mm
!
# GHz S MA R 50.000000
! Terminal data exported
! Port[1] = Ant_T1
0                              1.00002359104758 0                
! Gamma         50               0                
! Port Impedance         50               0                
1E-09                          1.00002359104758 -1.07166952557263E-06 
! Gamma         50               0                
! Port Impedance         50               0                
1.12201845430196E-09           1.00002359104758 -1.20243298460552E-06 
! Gamma         50               0                
! Port Impedance         50               0                
1.25892541179417E-09           1.00002359104758 -1.34915199878878E-06 
! Gamma         50               0                
! Port Impedance         50               0                
1.41253754462275E-09           1.00002359104758 -1.51377344029939E-06 
! Gamma         50               0                
! Port Impedance         50               0                
1.58489319246111E-09           1.00002359104758 -1.69848173564809E-06 
! Gamma         50               0                
! Port Impedance         50               0                
1.77827941003892E-09           1.00002359104758 -1.90572785169198E-06 
! Gamma         50               0                
! Port Impedance         50               0                
1.99526231496888E-09           1.00002359104758 -2.13826181847564E-06 
! Gamma         50               0                
! Port Impedance         50               0                
2.23872113856834E-09           1.00002359104758 -2.39916922045894E-06 
! Gamma         50               0                
! Port Impedance         50               0                
2.51188643150958E-09           1.00002359104758 -2.69191214034819E-06 
! Gamma         50               0                
! Port Impedance         50               0                
2.81838293126445E-09           1.00002359104758 -3.02037509883017E-06 
! Gamma         50               0                
! Port Impedance         50               0                
3.16227766016838E-09           1.00002359104758 -3.38891659980156E-06 
! Gamma         50               0                
! Port Impedance         50               0                
3.54813389233575E-09           1.00002359104758 -3.80242696506762E-06 
! Gamma         50               0                
! Port Impedance         50               0                
3.98107170553497E-09           1.00002359104758 -4.26639322594127E-06 
! Gamma         50               0                
! Port Impedance         50               0                
4.46683592150963E-09           1.00002359104758 -4.78697193281499E-06 
! Gamma         50               0                
! Port Impedance         50               0                
5.01187233627272E-09           1.00002359104758 -5.37107084884395E-06 
! Gamma         50               0                
! Port Impedance         50               0                
5.62341325190349E-09           1.00002359104758 -6.02644061176623E-06 
! Gamma         50               0                
! Port Impedance         50               0                
6.30957344480193E-09           1.00002359104758 -6.76177758015652E-06 
! Gamma         50               0                
! Port Impedance         50               0                
7.07945784384138E-09           1.00002359104758 -7.58683922882088E-06 
! Gamma         50               0                
! Port Impedance         50               0                
7.94328234724282E-09           1.00002359104758 -8.5125736245591E-06 
! Gamma         50               0                
! Port Impedance         50               0                
8.91250938133745E-09           1.00002359104758 -9.55126470035946E-06 
! Gamma         50               0                
! Port Impedance         50               0                
1E-08                          1.00002359104758 -1.07166952557262E-05 
! Gamma         50               0                
! Port Impedance         50               0                
1.12201845430196E-08           1.00002359104758 -1.20243298460551E-05 
! Gamma         50               0                
! Port Impedance         50               0                
1.25892541179417E-08           1.00002359104758 -1.34915199878877E-05 
! Gamma         50               0                
! Port Impedance         50               0                
1.41253754462275E-08           1.00002359104758 -1.51377344029937E-05 
! Gamma         50               0                
! Port Impedance         50               0                
1.58489319246111E-08           1.00002359104758 -1.69848173564806E-05 
! Gamma         50               0                
! Port Impedance         50               0                
1.77827941003892E-08           1.00002359104758 -1.90572785169195E-05 
! Gamma         50               0                
! Port Impedance         50               0                
1.99526231496888E-08           1.00002359104757 -2.13826181847559E-05 
! Gamma         50               0                
! Port Impedance         50               0                
2.23872113856834E-08           1.00002359104757 -2.39916922045888E-05 
! Gamma         50               0                
! Port Impedance         50               0                
2.51188643150958E-08           1.00002359104757 -2.69191214034809E-05 
! Gamma         50               0                
! Port Impedance         50               0                
2.81838293126445E-08           1.00002359104757 -3.02037509883003E-05 
! Gamma         50               0                
! Port Impedance         50               0                
3.16227766016838E-08           1.00002359104757 -3.38891659980137E-05 
! Gamma         50               0                
! Port Impedance         50               0                
3.54813389233575E-08           1.00002359104756 -3.80242696506734E-05 
! Gamma         50               0                
! Port Impedance         50               0                
3.98107170553497E-08           1.00002359104756 -4.26639322594089E-05 
! Gamma         50               0                
! Port Impedance         50               0                
4.46683592150963E-08           1.00002359104756 -4.78697193281445E-05 
! Gamma         50               0                
! Port Impedance         50               0                
5.01187233627272E-08           1.00002359104755 -5.37107084884319E-05 
! Gamma         50               0                
! Port Impedance         50               0                
5.62341325190349E-08           1.00002359104754 -6.02644061176515E-05 
! Gamma         50               0                
! Port Impedance         50               0                
6.30957344480193E-08           1.00002359104753 -6.76177758015499E-05 
! Gamma         50               0                
! Port Impedance         50               0                
7.07945784384138E-08           1.00002359104752 -7.58683922881873E-05 
! Gamma         50               0                
! Port Impedance         50               0                
7.94328234724281E-08           1.00002359104751 -8.51257362455605E-05 
! Gamma         50               0                
! Port Impedance         50               0                
8.91250938133746E-08           1.00002359104749 -9.55126470035516E-05 
! Gamma         50               0                
! Port Impedance         50               0                
1E-07                          1.00002359104746 -0.000107166952557201 
! Gamma         50               0                
! Port Impedance         50               0                
1.12201845430196E-07           1.00002359104743 -0.000120243298460465 
! Gamma         50               0                
! Port Impedance         50               0                
1.25892541179417E-07           1.00002359104739 -0.000134915199878755 
! Gamma         50               0                
! Port Impedance         50               0                
1.41253754462275E-07           1.00002359104734 -0.000151377344029766 
! Gamma         50               0                
! Port Impedance         50               0                
1.58489319246111E-07           1.00002359104728 -0.000169848173564565 
! Gamma         50               0                
! Port Impedance         50               0                
1.77827941003892E-07           1.00002359104721 -0.000190572785168853 
! Gamma         50               0                
! Port Impedance         50               0                
1.99526231496888E-07           1.00002359104711 -0.000213826181847076 
! Gamma         50               0                
! Port Impedance         50               0                
2.23872113856834E-07           1.00002359104699 -0.000239916922045206 
! Gamma         50               0                
! Port Impedance         50               0                
2.51188643150958E-07           1.00002359104683 -0.000269191214033846 
! Gamma         50               0                
! Port Impedance         50               0                
2.81838293126445E-07           1.00002359104664 -0.000302037509881643 
! Gamma         50               0                
! Port Impedance         50               0                
3.16227766016838E-07           1.0000235910464  -0.000338891659978215 
! Gamma         50               0                
! Port Impedance         50               0                
3.54813389233575E-07           1.00002359104609 -0.000380242696504019 
! Gamma         50               0                
! Port Impedance         50               0                
3.98107170553497E-07           1.00002359104571 -0.000426639322590254 
! Gamma         50               0                
! Port Impedance         50               0                
4.46683592150963E-07           1.00002359104522 -0.000478697193276028 
! Gamma         50               0                
! Port Impedance         50               0                
5.01187233627272E-07           1.00002359104461 -0.000537107084876668 
! Gamma         50               0                
! Port Impedance         50               0                
5.62341325190349E-07           1.00002359104385 -0.000602644061165706 
! Gamma         50               0                
! Port Impedance         50               0                
6.30957344480193E-07           1.00002359104288 -0.000676177758000232 
! Gamma         50               0                
! Port Impedance         50               0                
7.07945784384138E-07           1.00002359104166 -0.000758683922860307 
! Gamma         50               0                
! Port Impedance         50               0                
7.94328234724281E-07           1.00002359104013 -0.000851257362425144 
! Gamma         50               0                
! Port Impedance         50               0                
8.91250938133746E-07           1.0000235910382  -0.000955126469992487 
! Gamma         50               0                
! Port Impedance         50               0                
1E-06                          1.00002359103578 -0.00107166952551123 
! Gamma         50               0                
! Port Impedance         50               0                
1.12201845430196E-06           1.00002359103272 -0.0012024329845188 
! Gamma         50               0                
! Port Impedance         50               0                
1.25892541179417E-06           1.00002359102887 -0.00134915199866628 
! Gamma         50               0                
! Port Impedance         50               0                
1.41253754462275E-06           1.00002359102403 -0.00151377344012636 
! Gamma         50               0                
! Port Impedance         50               0                
1.58489319246111E-06           1.00002359101793 -0.00169848173540368 
! Gamma         50               0                
! Port Impedance         50               0                
1.77827941003892E-06           1.00002359101026 -0.00190572785134674 
! Gamma         50               0                
! Port Impedance         50               0                
1.99526231496888E-06           1.0000235910006  -0.00213826181798797 
! Gamma         50               0                
! Port Impedance         50               0                
2.23872113856834E-06           1.00002359098843 -0.00239916921977009 
! Gamma         50               0                
! Port Impedance         50               0                
2.51188643150958E-06           1.00002359097311 -0.00269191213937516 
! Gamma         50               0                
! Port Impedance         50               0                
2.81838293126445E-06           1.00002359095383 -0.00302037509745573 
! Gamma         50               0                
! Port Impedance         50               0                
3.16227766016838E-06           1.00002359092956 -0.00338891659786012 
! Gamma         50               0                
! Port Impedance         50               0                
3.54813389233575E-06           1.000023590899   -0.00380242696232525 
! Gamma         50               0                
! Port Impedance         50               0                
3.98107170553497E-06           1.00002359086053 -0.00426639322206758 
! Gamma         50               0                
! Port Impedance         50               0                
4.46683592150963E-06           1.0000235908121  -0.00478697192734326 
! Gamma         50               0                
! Port Impedance         50               0                
5.01187233627272E-06           1.00002359075113 -0.00537107084111494 
! Gamma         50               0                
! Port Impedance         50               0                
5.62341325190349E-06           1.00002359067437 -0.00602644060084869 
! Gamma         50               0                
! Port Impedance         50               0                
6.30957344480193E-06           1.00002359057774 -0.00676177756473509 
! Gamma         50               0                
! Port Impedance         50               0                
7.07945784384138E-06           1.00002359045608 -0.00758683920703754 
! Gamma         50               0                
! Port Impedance         50               0                
7.94328234724281E-06           1.00002359030293 -0.0085125735937893 
! Gamma         50               0                
! Port Impedance         50               0                
8.91250938133746E-06           1.00002359011012 -0.00955126465689597 
! Gamma         50               0                
! Port Impedance         50               0                
1E-05                          1.00002358986739 -0.0107166951943324 
! Gamma         50               0                
! Port Impedance         50               0                
1.12201845430196E-05           1.0000235895618  -0.012024329759334 
! Gamma         50               0                
! Port Impedance         50               0                
1.25892541179417E-05           1.0000235891771  -0.0134915198653909 
! Gamma         50               0                
! Port Impedance         50               0                
1.41253754462276E-05           1.00002358869278 -0.0151377342299624 
! Gamma         50               0                
! Port Impedance         50               0                
1.58489319246111E-05           1.00002358808306 -0.0169848171120674 
! Gamma         50               0                
! Port Impedance         50               0                
1.77827941003892E-05           1.00002358731548 -0.0190572781716767 
! Gamma         50               0                
! Port Impedance         50               0                
1.99526231496888E-05           1.00002358634914 -0.0213826176970875 
! Gamma         50               0                
! Port Impedance         50               0                
2.23872113856834E-05           1.00002358513259 -0.0239916915157388 
! Gamma         50               0                
! Port Impedance         50               0                
2.51188643150958E-05           1.00002358360105 -0.0269191204304546 
! Gamma         50               0                
! Port Impedance         50               0                
2.81838293126445E-05           1.00002358167295 -0.030203749613864 
! Gamma         50               0                
! Port Impedance         50               0                
3.16227766016838E-05           1.00002357924561 -0.033889164056571 
! Gamma         50               0                
! Port Impedance         50               0                
3.54813389233575E-05           1.00002357618978 -0.0380242669083128 
! Gamma         50               0                
! Port Impedance         50               0                
3.98107170553497E-05           1.0000235723427  -0.0426639283857219 
! Gamma         50               0                
! Port Impedance         50               0                
4.46683592150963E-05           1.00002356749951 -0.0478697138564169 
! Gamma         50               0                
! Port Impedance         50               0                
5.01187233627273E-05           1.00002356140228 -0.0537107007594122 
! Gamma         50               0                
! Port Impedance         50               0                
5.62341325190349E-05           1.0000235537263  -0.0602643952001228 
! Gamma         50               0                
! Port Impedance         50               0                
6.30957344480193E-05           1.00002354406278 -0.067617760380134 
! Gamma         50               0                
! Port Impedance         50               0                
7.07945784384137E-05           1.00002353189709 -0.075868370504864 
! Gamma         50               0                
! Port Impedance         50               0                
7.94328234724282E-05           1.0000235165813  -0.085125705475809 
! Gamma         50               0                
! Port Impedance         50               0                
8.91250938133746E-05           1.00002349729973 -0.0955126035401406 
! Gamma         50               0                
! Port Impedance         50               0                
0.0001                         1.00002347302547 -0.107166891163534 
! Gamma         50               0                
! Port Impedance         50               0                
0.000112201845430196           1.00002344246567 -0.120243211739663 
! Gamma         50               0                
! Port Impedance         50               0                
0.000125892541179417           1.00002340399263 -0.13491507738247 
! Gamma         50               0                
! Port Impedance         50               0                
0.000141253754462276           1.00002335555712 -0.151377170999347 
! Gamma         50               0                
! Port Impedance         50               0                
0.000158489319246111           1.00002329457912 -0.169847929152928 
! Gamma         50               0                
! Port Impedance         50               0                
0.000177827941003892           1.00002321781031 -0.19057243992882 
! Gamma         50               0                
! Port Impedance         50               0                
0.000199526231496888           1.00002312116083 -0.213825694183599 
! Gamma         50               0                
! Port Impedance         50               0                
0.000223872113856834           1.00002299948115 -0.239916233204069 
! Gamma         50               0                
! Port Impedance         50               0                
0.000251188643150958           1.00002284628729 -0.269190241023141 
! Gamma         50               0                
! Port Impedance         50               0                
0.000281838293126446           1.00002265341462 -0.302036135473291 
! Gamma         50               0                
! Port Impedance         50               0                
0.000316227766016838           1.00002241058167 -0.338889718585133 
! Gamma         50               0                
! Port Impedance         50               0                
0.000354813389233575           1.00002210484036 -0.380239954231747 
! Gamma         50               0                
! Port Impedance         50               0                
0.000398107170553497           1.000021719883   -0.426635449060333 
! Gamma         50               0                
! Port Impedance         50               0                
0.000446683592150963           1.00002123516818 -0.478691721827596 
! Gamma         50               0                
! Port Impedance         50               0                
0.000501187233627273           1.00002062481808 -0.53709935635349 
! Gamma         50               0                
! Port Impedance         50               0                
0.000562341325190349           1.00001985622636 -0.602633144519993 
! Gamma         50               0                
! Port Impedance         50               0                
0.000630957344480193           1.00001888829944 -0.6761623381545 
! Gamma         50               0                
! Port Impedance         50               0                
0.000707945784384137           1.000017669233   -0.758662142329338 
! Gamma         50               0                
! Port Impedance         50               0                
0.000794328234724282           1.00001613369729 -0.851226597638888 
! Gamma         50               0                
! Port Impedance         50               0                
0.000891250938133746           1.00001419926964 -0.955083015411037 
! Gamma         50               0                
! Port Impedance         50               0                
0.001                          1.00001176143943 -1.07160814737475 
! Gamma         0                0                
! Port Impedance         50               0                
0.00112201845430196            1.00000871643597 -1.20234645188479 
! Gamma         0                0                
! Port Impedance         50               0                
0.00125892541179417            1.00000495333993 -1.3490304557207 
! Gamma         0                0                
! Port Impedance         50               0                
0.00141253754462276            1.00000032352224 -1.5136033775122 
! Gamma         0                0                
! Port Impedance         50               0                
0.00158489319246111            0.999994658280026 -1.6982447595067 
! Gamma         0                0                
! Port Impedance         50               0                
0.00177827941003892            0.999987771554457 -1.90539910889037 
! Gamma         0                0                
! Port Impedance         50               0                
0.00199526231496888            0.999979465814365 -2.13780801013279 
! Gamma         0                0                
! Port Impedance         50               0                
0.00223872113856834            0.99996954197407 -2.39854613035894 
! Gamma         0                0                
! Port Impedance         50               0                
0.00251188643150958            0.999957813847066 -2.6910615757998 
! Gamma         0                0                
! Port Impedance         50               0                
0.00281838293126445            0.999944126818843 -3.01922107627477 
! Gamma         0                0                
! Port Impedance         50               0                
0.00316227766016838            0.999928379100282 -3.38736046368422 
! Gamma         0                0                
! Port Impedance         50               0                
0.00354813389233575            0.999910542252732 -3.80034086093759 
! Gamma         0                0                
! Port Impedance         50               0                
0.00398107170553497            0.999890676113731 -4.26361091439452 
! Gamma         0                0                
! Port Impedance         50               0                
0.00446683592150963            0.999868932516134 -4.78327531085598 
! Gamma         0                0                
! Port Impedance         50               0                
0.00501187233627272            0.999845543003435 -5.36616975780232 
! Gamma         0                0                
! Port Impedance         50               0                
0.00562341325190349            0.999820788393537 -6.01994259587532 
! Gamma         0                0                
! Port Impedance         50               0                
0.00630957344480193            0.999794952038987 -6.75314322265153 
! Gamma         0                0                
! Port Impedance         50               0                
0.00707945784384137            0.999768262706474 -7.57531742764641 
! Gamma         0                0                
! Port Impedance         50               0                
0.00794328234724282            0.999740835609252 -8.49710941448176 
! Gamma         0                0                
! Port Impedance         50               0                
0.00891250938133746            0.999712620216326 -9.53036958213838 
! Gamma         0                0                
! Port Impedance         50               0                
0.01                           0.999683361045217 -10.6882659889682 
! Gamma         0                0                
! Port Impedance         50               0                
0.0112201845430196             0.999652573841325 -11.9853958210432 
! Gamma         0                0                
! Port Impedance         50               0                
0.0125892541179417             0.999619536033036 -13.4378911033567 
! Gamma         0                0                
! Port Impedance         50               0                
0.0141253754462276             0.999583288567637 -15.0635102171495 
! Gamma         0                0                
! Port Impedance         50               0                
0.0158489319246111             0.999542646840484 -16.8817033145443 
! Gamma         0                0                
! Port Impedance         50               0                
0.0177827941003892             0.999496221288349 -18.9136352059203 
! Gamma         0                0                
! Port Impedance         50               0                
0.0199526231496888             0.999442452739598 -21.1821435340926 
! Gamma         0                0                
! Port Impedance         50               0                
0.0223872113856834             0.999379673123704 -23.7116029955917 
! Gamma         0                0                
! Port Impedance         50               0                
0.0251188643150958             0.999306207938085 -26.5276582837609 
! Gamma         0                0                
! Port Impedance         50               0                
0.0281838293126445             0.999220541870393 -29.6567801074999 
! Gamma         0                0                
! Port Impedance         50               0                
0.0316227766016838             0.999121570988934 -33.1255917436858 
! Gamma         0                0                
! Port Impedance         50               0                
0.0354813389233575             0.999008959633904 -36.9599110371154 
! Gamma         0                0                
! Port Impedance         50               0                
0.0398107170553497             0.998883600105492 -41.1834591150891 
! Gamma         0                0                
! Port Impedance         50               0                
0.0446683592150963             0.998748127442514 -45.8162085132751 
! Gamma         0                0                
! Port Impedance         50               0                
0.0501187233627272             0.998607357126677 -50.8723868905928 
! Gamma         0                0                
! Port Impedance         50               0                
0.0562341325190349             0.998468381613824 -56.3582234600229 
! Gamma         0                0                
! Port Impedance         50               0                
0.0630957344480193             0.998339889712027 -62.2696231875983 
! Gamma         0                0                
! Port Impedance         50               0                
0.0707945784384137             0.998230102269191 -68.5900664816362 
! Gamma         0                0                
! Port Impedance         50               0                
0.0794328234724282             0.998142636661715 -75.289130772061 